       N       E                     dE             d eps       ncg     rms          rms(c)
DAV:   1    -0.140650024180E+02   -0.14065E+02   -0.28052E-01******   0.244E+01
DAV:   2    -0.140650258567E+02   -0.23439E-04   -0.23439E-04******   0.125E-01
DAV:   3    -0.140650259203E+02   -0.63644E-07   -0.64200E-07******   0.673E-03
DAV:   4    -0.140650259222E+02   -0.18772E-08   -0.85807E-09******   0.659E-04
DAV:   5    -0.140650259219E+02    0.24284E-09   -0.15782E-10******   0.907E-05
   1 F= -.14065026E+02 E0= -.14065057E+02  d E =0.939930E-04  mag=     0.0000     0.0000     3.2036
