       N       E                     dE             d eps       ncg     rms          rms(c)
DAV:   1    -0.140671359763E+02   -0.14067E+02   -0.28045E-01******   0.244E+01
DAV:   2    -0.140671601329E+02   -0.24157E-04   -0.24155E-04******   0.127E-01
DAV:   3    -0.140671601988E+02   -0.65872E-07   -0.66824E-07******   0.687E-03
DAV:   4    -0.140671602003E+02   -0.15325E-08   -0.89949E-09******   0.677E-04
DAV:   5    -0.140671602000E+02    0.32287E-09   -0.16595E-10******   0.933E-05
   1 F= -.14067160E+02 E0= -.14067195E+02  d E =0.104923E-03  mag=     0.0000     0.0000     3.1950
