       N       E                     dE             d eps       ncg     rms          rms(c)
DAV:   1    -0.140673872454E+02   -0.14067E+02   -0.28119E-01******   0.244E+01
DAV:   2    -0.140674112008E+02   -0.23955E-04   -0.23955E-04******   0.126E-01
DAV:   3    -0.140674112643E+02   -0.63542E-07   -0.64933E-07******   0.674E-03
DAV:   4    -0.140674112666E+02   -0.22328E-08   -0.87418E-09******   0.663E-04
DAV:   5    -0.140674112666E+02   -0.12733E-10   -0.16272E-10******   0.914E-05
   1 F= -.14067411E+02 E0= -.14067447E+02  d E =0.106029E-03  mag=     0.0000     0.0000     3.1933
