 CRYSTAL
 PRIMVEC
2.8251955 .0000000 .0000000
.0340016 2.8249909 .0000000
.0340016 .0335948 2.8247911
 PRIMCOORD
           2  1
  26  .0000000 .0000000 .0000000
  26  1.4465994 1.4292929 1.4123956
 
