 CRYSTAL
 PRIMVEC
2.7905007 .0000000 .0000000
.1004255 2.7886931 .0000000
.0000000 .0000000 2.7900488
 PRIMCOORD
           2  1
  26  .0000000 .0000000 .0000000
  26  1.4454631 1.3943465 1.3950244
 
