
     Program PWSCF v.7.1 starts on 14Nov2022 at 12:18:57 

     This program is part of the open-source Quantum ESPRESSO suite
     for quantum simulation of materials; please cite
         "P. Giannozzi et al., J. Phys.:Condens. Matter 21 395502 (2009);
         "P. Giannozzi et al., J. Phys.:Condens. Matter 29 465901 (2017);
         "P. Giannozzi et al., J. Chem. Phys. 152 154105 (2020);
          URL http://www.quantum-espresso.org", 
     in publications or presentations arising from this work. More details at
     http://www.quantum-espresso.org/quote

     Parallel version (MPI & OpenMP), running on      36 processor cores
     Number of MPI processes:                36
     Threads/MPI process:                     1

     MPI processes distributed on     1 nodes
     179034 MiB available memory on the printing compute node when the environment starts
 
     Waiting for input...
     Reading input from standard input
Warning: card &CELL ignored
Warning: card / ignored

     Current dimensions of program PWSCF are:
     Max number of different atomic species (ntypx) = 10
     Max number of k-points (npk) =  40000
     Max angular momentum in pseudopotentials (lmaxx) =  4
     file Fe.pbesol-spn-kjpaw_psl.1.0.0.UPF: wavefunction(s)  3P 3D renormalized
     Found identity + ( -0.5000 -0.5000 -0.5000) symmetry
     This is a supercell, fractional translations are disabled
     Message from routine setup:
     using ibrav=0 with symmetry is DISCOURAGED, use correct ibrav instead
 
     K-points division:     npool     =       3
     R & G space division:  proc/nbgrp/npool/nimage =      12
     Subspace diagonalization in iterative solution of the eigenvalue problem:
     a serial algorithm will be used

 
     Parallelization info
     --------------------
     sticks:   dense  smooth     PW     G-vecs:    dense   smooth      PW
     Min          88      43     14                 2168      767     139
     Max          89      44     15                 2171      769     142
     Sum        1067     525    177                26037     9219    1689
 
     Using Slab Decomposition
 

     Title: 
     #                                                                          


     bravais-lattice index     =            0
     lattice parameter (alat)  =       5.2729  a.u.
     unit-cell volume          =     146.5302 (a.u.)^3
     number of atoms/cell      =            2
     number of atomic types    =            1
     number of electrons       =        32.00
     number of Kohn-Sham states=           20
     kinetic-energy cutoff     =      60.0000  Ry
     charge density cutoff     =     480.0000  Ry
     scf convergence threshold =      1.0E-06
     mixing beta               =       0.7000
     number of iterations used =            8  plain     mixing
     Exchange-correlation= SLA  PW   PSX  PSC
                           (   1   4  10   8   0   0   0)

     celldm(1)=   5.272855  celldm(2)=   0.000000  celldm(3)=   0.000000
     celldm(4)=   0.000000  celldm(5)=   0.000000  celldm(6)=   0.000000

     crystal axes: (cart. coord. in units of alat)
               a(1) = (   0.999919   0.008999   0.008999 )  
               a(2) = (   0.008999   0.999919   0.008999 )  
               a(3) = (   0.008999   0.008999   0.999919 )  

     reciprocal axes: (cart. coord. in units 2 pi/alat)
               b(1) = (  1.000242 -0.008922 -0.008922 )  
               b(2) = ( -0.008922  1.000242 -0.008922 )  
               b(3) = ( -0.008922 -0.008922  1.000242 )  


     PseudoPot. # 1 for Fe read from file:
     /home/nie0061/qe/pseudo/Fe.pbesol-spn-kjpaw_psl.1.0.0.UPF
     MD5 check sum: e30d5f36a6f0cb983ee41abee56170da
     Pseudo is Projector augmented-wave + core cor, Zval = 16.0
     Generated using &quot;atomic&quot; code by A. Dal Corso  v.6.3
     Shape of augmentation charge: PSQ
     Using radial grid of 1191 points,  6 beta functions with: 
                l(1) =   0
                l(2) =   0
                l(3) =   1
                l(4) =   1
                l(5) =   2
                l(6) =   2
     Q(r) pseudized with 0 coefficients 


     atomic species   valence    mass     pseudopotential
        Fe            16.00    55.84500     Fe( 1.00)

     Starting magnetic structure 
     atomic species   magnetization
        Fe           0.700

     12 Sym. Ops., with inversion, found



   Cartesian axes

     site n.     atom                  positions (alat units)
         1           Fe  tau(   1) = (   0.0000000   0.0000000   0.0000000  )
         2           Fe  tau(   2) = (   0.5089588   0.5089588   0.5089588  )

     number of k points=   116  Gaussian smearing, width (Ry)=  0.0200

     Number of k-points >= 100: set verbosity='high' to print them.

     Dense  grid:    26037 G-vectors     FFT dimensions: (  40,  40,  40)

     Smooth grid:     9219 G-vectors     FFT dimensions: (  25,  25,  25)

     Estimated max dynamical RAM per process >       8.46 MB

     Estimated total dynamical RAM >     279.24 MB

     Check: negative core charge=   -0.000003
     Generating pointlists ...
     new r_m :   0.3551 (alat units)  1.8723 (a.u.) for type    1

     Initial potential from superposition of free atoms

     starting charge      31.9992, renormalised to      32.0000
     Starting wfcs are   20 randomized atomic wfcs
     Checking if some PAW data can be deallocated... 

     total cpu time spent up to now is        0.4 secs

     Self-consistent Calculation

     iteration #  1     ecut=    60.00 Ry     beta= 0.70
     Davidson diagonalization with overlap
     ethr =  1.00E-02,  avg # of iterations =  3.7

     negative rho (up, down):  0.000E+00 5.719E-04

     total cpu time spent up to now is        1.1 secs

     total energy              =    -653.27827322 Ry
     estimated scf accuracy    <       3.08295493 Ry

     total magnetization       =     7.42 Bohr mag/cell
     absolute magnetization    =     7.51 Bohr mag/cell

     iteration #  2     ecut=    60.00 Ry     beta= 0.70
     Davidson diagonalization with overlap
     ethr =  9.63E-03,  avg # of iterations =  1.1

     negative rho (up, down):  0.000E+00 4.420E-04

     total cpu time spent up to now is        1.6 secs

     total energy              =    -653.67799319 Ry
     estimated scf accuracy    <       0.56167956 Ry

     total magnetization       =     5.97 Bohr mag/cell
     absolute magnetization    =     6.30 Bohr mag/cell

     iteration #  3     ecut=    60.00 Ry     beta= 0.70
     Davidson diagonalization with overlap
     ethr =  1.76E-03,  avg # of iterations =  2.9

     negative rho (up, down):  0.000E+00 5.111E-04

     total cpu time spent up to now is        2.3 secs

     total energy              =    -653.71678641 Ry
     estimated scf accuracy    <       0.56627856 Ry

     total magnetization       =     4.56 Bohr mag/cell
     absolute magnetization    =     4.83 Bohr mag/cell

     iteration #  4     ecut=    60.00 Ry     beta= 0.70
     Davidson diagonalization with overlap
     ethr =  1.76E-03,  avg # of iterations =  2.3

     negative rho (up, down):  0.000E+00 3.062E-04

     total cpu time spent up to now is        2.9 secs

     total energy              =    -653.80347451 Ry
     estimated scf accuracy    <       0.00690713 Ry

     total magnetization       =     4.45 Bohr mag/cell
     absolute magnetization    =     4.73 Bohr mag/cell

     iteration #  5     ecut=    60.00 Ry     beta= 0.70
     Davidson diagonalization with overlap
     ethr =  2.16E-05,  avg # of iterations =  4.6

     negative rho (up, down):  0.000E+00 2.817E-04

     total cpu time spent up to now is        3.7 secs

     total energy              =    -653.80677492 Ry
     estimated scf accuracy    <       0.14290202 Ry

     total magnetization       =     4.26 Bohr mag/cell
     absolute magnetization    =     4.46 Bohr mag/cell

     iteration #  6     ecut=    60.00 Ry     beta= 0.70
     Davidson diagonalization with overlap
     ethr =  2.16E-05,  avg # of iterations =  2.4

     negative rho (up, down):  0.000E+00 1.731E-04

     total cpu time spent up to now is        4.3 secs

     total energy              =    -653.80953209 Ry
     estimated scf accuracy    <       0.00834731 Ry

     total magnetization       =     4.27 Bohr mag/cell
     absolute magnetization    =     4.48 Bohr mag/cell

     iteration #  7     ecut=    60.00 Ry     beta= 0.70
     Davidson diagonalization with overlap
     ethr =  2.16E-05,  avg # of iterations =  2.8

     negative rho (up, down):  0.000E+00 1.565E-04

     total cpu time spent up to now is        4.9 secs

     total energy              =    -653.81197163 Ry
     estimated scf accuracy    <       0.00100209 Ry

     total magnetization       =     4.17 Bohr mag/cell
     absolute magnetization    =     4.35 Bohr mag/cell

     iteration #  8     ecut=    60.00 Ry     beta= 0.70
     Davidson diagonalization with overlap
     ethr =  3.13E-06,  avg # of iterations =  2.3

     negative rho (up, down):  0.000E+00 1.497E-04

     total cpu time spent up to now is        5.5 secs

     total energy              =    -653.81214342 Ry
     estimated scf accuracy    <       0.00001861 Ry

     total magnetization       =     4.18 Bohr mag/cell
     absolute magnetization    =     4.36 Bohr mag/cell

     iteration #  9     ecut=    60.00 Ry     beta= 0.70
     Davidson diagonalization with overlap
     ethr =  5.82E-08,  avg # of iterations =  2.3

     negative rho (up, down):  0.000E+00 1.555E-04

     total cpu time spent up to now is        6.1 secs

     total energy              =    -653.81214509 Ry
     estimated scf accuracy    <       0.00000711 Ry

     total magnetization       =     4.17 Bohr mag/cell
     absolute magnetization    =     4.35 Bohr mag/cell

     iteration # 10     ecut=    60.00 Ry     beta= 0.70
     Davidson diagonalization with overlap
     ethr =  2.22E-08,  avg # of iterations =  3.4

     negative rho (up, down):  0.000E+00 1.546E-04

     total cpu time spent up to now is        6.8 secs

     total energy              =    -653.81214803 Ry
     estimated scf accuracy    <       0.00000506 Ry

     total magnetization       =     4.18 Bohr mag/cell
     absolute magnetization    =     4.35 Bohr mag/cell

     iteration # 11     ecut=    60.00 Ry     beta= 0.70
     Davidson diagonalization with overlap
     ethr =  1.58E-08,  avg # of iterations =  1.7

     negative rho (up, down):  0.000E+00 1.536E-04
 
     Magnetic moment per site  (integrated on atomic sphere of radius R)
     atom   1 (R=0.355)  charge= 14.3164  magn=  2.1165
     atom   2 (R=0.355)  charge= 14.3166  magn=  2.1169

     total cpu time spent up to now is        7.3 secs

     End of self-consistent calculation

     Number of k-points >= 100: set verbosity='high' to print the bands.

     the Fermi energy is    19.2385 ev

!    total energy              =    -653.81214794 Ry
     total all-electron energy =     -5086.463567 Ry
     estimated scf accuracy    <       0.00000061 Ry
     smearing contrib. (-TS)   =      -0.00469133 Ry
     internal energy E=F+TS    =    -653.80745660 Ry

     The total energy is F=E-TS. E is the sum of the following terms:
     one-electron contribution =    -210.66379510 Ry
     hartree contribution      =     126.60841067 Ry
     xc contribution           =     -54.91528823 Ry
     ewald contribution        =    -353.39700756 Ry
     one-center paw contrib.   =    -161.43977638 Ry

     total magnetization       =     4.18 Bohr mag/cell
     absolute magnetization    =     4.35 Bohr mag/cell

     convergence has been achieved in  11 iterations

     Writing all to output data dir ./pwscf.save/
 
     init_run     :      0.29s CPU      0.34s WALL (       1 calls)
     electrons    :      6.57s CPU      6.86s WALL (       1 calls)

     Called by init_run:
     wfcinit      :      0.11s CPU      0.12s WALL (       1 calls)
     potinit      :      0.10s CPU      0.12s WALL (       1 calls)
     hinit0       :      0.07s CPU      0.07s WALL (       1 calls)

     Called by electrons:
     c_bands      :      4.88s CPU      5.11s WALL (      11 calls)
     sum_band     :      0.68s CPU      0.71s WALL (      11 calls)
     v_of_rho     :      0.07s CPU      0.07s WALL (      12 calls)
     newd         :      0.03s CPU      0.03s WALL (      12 calls)
     PAW_pot      :      0.97s CPU      1.01s WALL (      12 calls)
     mix_rho      :      0.01s CPU      0.01s WALL (      11 calls)

     Called by c_bands:
     init_us_2    :      0.05s CPU      0.05s WALL (    1794 calls)
     init_us_2:cp :      0.05s CPU      0.05s WALL (    1794 calls)
     cegterg      :      4.15s CPU      4.36s WALL (     858 calls)

     Called by *egterg:
     cdiaghg      :      1.22s CPU      1.28s WALL (    3144 calls)
     h_psi        :      2.62s CPU      2.77s WALL (    3222 calls)
     s_psi        :      0.04s CPU      0.04s WALL (    3222 calls)
     g_psi        :      0.01s CPU      0.01s WALL (    2286 calls)

     Called by h_psi:
     h_psi:calbec :      0.09s CPU      0.10s WALL (    3222 calls)
     vloc_psi     :      2.46s CPU      2.60s WALL (    3222 calls)
     add_vuspsi   :      0.04s CPU      0.05s WALL (    3222 calls)

     General routines
     calbec       :      0.12s CPU      0.12s WALL (    4080 calls)
     fft          :      0.03s CPU      0.03s WALL (     294 calls)
     ffts         :      0.00s CPU      0.00s WALL (      46 calls)
     fftw         :      2.65s CPU      2.79s WALL (  105818 calls)
     interpolate  :      0.00s CPU      0.00s WALL (      24 calls)
 
     Parallel routines
 
     PWSCF        :      7.04s CPU      7.58s WALL

 
   This run was terminated on:  12:19: 5  14Nov2022            

=------------------------------------------------------------------------------=
   JOB DONE.
=------------------------------------------------------------------------------=
