       N       E                     dE             d eps       ncg     rms          rms(c)
DAV:   1    -0.140671386721E+02   -0.14067E+02   -0.28036E-01******   0.244E+01
DAV:   2    -0.140671630308E+02   -0.24359E-04   -0.24358E-04******   0.127E-01
DAV:   3    -0.140671630972E+02   -0.66400E-07   -0.66739E-07******   0.687E-03
DAV:   4    -0.140671630985E+02   -0.13251E-08   -0.89644E-09******   0.676E-04
DAV:   5    -0.140671630993E+02   -0.81855E-09   -0.16426E-10******   0.931E-05
   1 F= -.14067163E+02 E0= -.14067198E+02  d E =0.104596E-03  mag=     0.0000     0.0000     3.1950
