       N       E                     dE             d eps       ncg     rms          rms(c)
DAV:   1    -0.140645411455E+02   -0.14065E+02   -0.28090E-01******   0.244E+01
DAV:   2    -0.140645652519E+02   -0.24106E-04   -0.24106E-04******   0.127E-01
DAV:   3    -0.140645653183E+02   -0.66375E-07   -0.66391E-07******   0.685E-03
DAV:   4    -0.140645653196E+02   -0.12778E-08   -0.89422E-09******   0.676E-04
DAV:   5    -0.140645653197E+02   -0.11278E-09   -0.16616E-10******   0.931E-05
   1 F= -.14064565E+02 E0= -.14064579E+02  d E =0.418955E-04  mag=     0.0000     0.0000     3.1935
