       N       E                     dE             d eps       ncg     rms          rms(c)
DAV:   1    -0.140654101748E+02   -0.14065E+02   -0.28167E-01******   0.244E+01
DAV:   2    -0.140654344322E+02   -0.24257E-04   -0.24258E-04******   0.127E-01
DAV:   3    -0.140654344975E+02   -0.65235E-07   -0.65266E-07******   0.675E-03
DAV:   4    -0.140654344985E+02   -0.10587E-08   -0.88149E-09******   0.665E-04
DAV:   5    -0.140654344993E+02   -0.82582E-09   -0.16463E-10******   0.916E-05
   1 F= -.14065434E+02 E0= -.14065460E+02  d E =0.766143E-04  mag=     0.0000     0.0000     3.1892
