       N       E                     dE             d eps       ncg     rms          rms(c)
DAV:   1    -0.140647595633E+02   -0.14065E+02   -0.28030E-01******   0.244E+01
DAV:   2    -0.140647836537E+02   -0.24090E-04   -0.24091E-04******   0.127E-01
DAV:   3    -0.140647837195E+02   -0.65811E-07   -0.66434E-07******   0.687E-03
DAV:   4    -0.140647837221E+02   -0.25393E-08   -0.89204E-09******   0.676E-04
DAV:   5    -0.140647837216E+02    0.45020E-09   -0.16307E-10******   0.931E-05
   1 F= -.14064784E+02 E0= -.14064716E+02  d E =-.204028E-03  mag=     0.0000     0.0000     3.2096
