       N       E                     dE             d eps       ncg     rms          rms(c)
DAV:   1    -0.140645326225E+02   -0.14065E+02   -0.28038E-01******   0.244E+01
DAV:   2    -0.140645569412E+02   -0.24319E-04   -0.24319E-04******   0.127E-01
DAV:   3    -0.140645570078E+02   -0.66588E-07   -0.67120E-07******   0.688E-03
DAV:   4    -0.140645570096E+02   -0.18044E-08   -0.90510E-09******   0.679E-04
DAV:   5    -0.140645570093E+02    0.25830E-09   -0.16770E-10******   0.936E-05
   1 F= -.14064557E+02 E0= -.14064572E+02  d E =0.459272E-04  mag=     0.0000     0.0000     3.1935
