       N       E                     dE             d eps       ncg     rms          rms(c)
DAV:   1    -0.140667961165E+02   -0.14067E+02   -0.28046E-01******   0.244E+01
DAV:   2    -0.140668204251E+02   -0.24309E-04   -0.24308E-04******   0.127E-01
DAV:   3    -0.140668204920E+02   -0.66871E-07   -0.67174E-07******   0.688E-03
DAV:   4    -0.140668204933E+02   -0.12769E-08   -0.90758E-09******   0.680E-04
DAV:   5    -0.140668204926E+02    0.71941E-09   -0.16816E-10******   0.937E-05
   1 F= -.14066820E+02 E0= -.14066855E+02  d E =0.102783E-03  mag=     0.0000     0.0000     3.1910
