       N       E                     dE             d eps       ncg     rms          rms(c)
DAV:   1    -0.140663077999E+02   -0.14066E+02   -0.28074E-01******   0.244E+01
DAV:   2    -0.140663314055E+02   -0.23606E-04   -0.23606E-04******   0.126E-01
DAV:   3    -0.140663314695E+02   -0.64027E-07   -0.64398E-07******   0.673E-03
DAV:   4    -0.140663314710E+02   -0.15225E-08   -0.86162E-09******   0.660E-04
DAV:   5    -0.140663314698E+02    0.12515E-08   -0.15888E-10******   0.908E-05
DAV:   6    -0.140663314706E+02   -0.87130E-09   -0.19002E-11******   0.344E-05
   1 F= -.14066331E+02 E0= -.14066366E+02  d E =0.102603E-03  mag=     0.0000     0.0000     3.1997
