 CRYSTAL
 PRIMVEC
2.8420445 .0000000 .0000000
.0000000 2.8420445 .0000000
.0000000 .0000000 2.8420445
 PRIMCOORD
           2  1
  26  .0000000 .0000000 .0000000
  26  1.4210223 1.4210223 1.4210223
 
