       N       E                     dE             d eps       ncg     rms          rms(c)
DAV:   1    -0.165256176167E+02   -0.16526E+02   -0.23432E-01898176   0.196E+01
DAV:   2    -0.165256438056E+02   -0.26189E-04   -0.26192E-04******   0.125E-01
DAV:   3    -0.165256438774E+02   -0.71715E-07   -0.71892E-07957216   0.702E-03
DAV:   4    -0.165256438800E+02   -0.26848E-08   -0.95468E-09******   0.705E-04
DAV:   5    -0.165256438802E+02   -0.12369E-09   -0.17469E-10752280   0.940E-05
   1 F= -.16525644E+02 E0= -.16525644E+02  d E =0.000000E+00  mag=     0.0000     0.0000     4.3303
