       N       E                     dE             d eps       ncg     rms          rms(c)
DAV:   1    -0.165243005630E+02   -0.16524E+02   -0.23429E-01897312   0.196E+01
DAV:   2    -0.165243257447E+02   -0.25182E-04   -0.25185E-04******   0.124E-01
DAV:   3    -0.165243258169E+02   -0.72188E-07   -0.71507E-07955032   0.704E-03
DAV:   4    -0.165243258181E+02   -0.12478E-08   -0.95619E-09******   0.709E-04
DAV:   5    -0.165243258189E+02   -0.74215E-09   -0.17684E-10755064   0.946E-05
   1 F= -.16524326E+02 E0= -.16524326E+02  d E =0.000000E+00  mag=     0.0000     0.0000     4.3324
