 CRYSTAL
 PRIMVEC
2.8251955 .0000000 .0000000
-.0337982 2.8249933 .0000000
-.0337982 -.0342050 2.8247863
 PRIMCOORD
           2  1
  26  .0000000 .0000000 .0000000
  26  1.3787996 1.3953942 1.4123931
 
