 CRYSTAL
 PRIMVEC
2.8759455 .0000000 .0000000
.0000000 2.8759455 .0000000
.0000000 .0000000 2.8759455
 PRIMCOORD
           2  1
  26  .0000000 .0000000 .0000000
  26  1.4379728 1.4379728 1.4379728
 
