
     Program PWSCF v.7.1 starts on 14Nov2022 at 12:20: 5 

     This program is part of the open-source Quantum ESPRESSO suite
     for quantum simulation of materials; please cite
         "P. Giannozzi et al., J. Phys.:Condens. Matter 21 395502 (2009);
         "P. Giannozzi et al., J. Phys.:Condens. Matter 29 465901 (2017);
         "P. Giannozzi et al., J. Chem. Phys. 152 154105 (2020);
          URL http://www.quantum-espresso.org", 
     in publications or presentations arising from this work. More details at
     http://www.quantum-espresso.org/quote

     Parallel version (MPI & OpenMP), running on      36 processor cores
     Number of MPI processes:                36
     Threads/MPI process:                     1

     MPI processes distributed on     1 nodes
     178217 MiB available memory on the printing compute node when the environment starts
 
     Waiting for input...
     Reading input from standard input
Warning: card &CELL ignored
Warning: card / ignored

     Current dimensions of program PWSCF are:
     Max number of different atomic species (ntypx) = 10
     Max number of k-points (npk) =  40000
     Max angular momentum in pseudopotentials (lmaxx) =  4
     file Fe.pbesol-spn-kjpaw_psl.1.0.0.UPF: wavefunction(s)  3P 3D renormalized
     Found identity + (  0.5000  0.5000  0.5000) symmetry
     This is a supercell, fractional translations are disabled
     Message from routine setup:
     using ibrav=0 with symmetry is DISCOURAGED, use correct ibrav instead
 
     K-points division:     npool     =       3
     R & G space division:  proc/nbgrp/npool/nimage =      12
     Subspace diagonalization in iterative solution of the eigenvalue problem:
     a serial algorithm will be used

 
     Parallelization info
     --------------------
     sticks:   dense  smooth     PW     G-vecs:    dense   smooth      PW
     Min          90      45     14                 2178      767     144
     Max          92      46     15                 2179      768     147
     Sum        1085     545    177                26137     9209    1743
 
     Using Slab Decomposition
 

     Title: 
     #                                                                          


     bravais-lattice index     =            0
     lattice parameter (alat)  =       5.2882  a.u.
     unit-cell volume          =     147.4463 (a.u.)^3
     number of atoms/cell      =            2
     number of atomic types    =            1
     number of electrons       =        32.00
     number of Kohn-Sham states=           20
     kinetic-energy cutoff     =      60.0000  Ry
     charge density cutoff     =     480.0000  Ry
     scf convergence threshold =      1.0E-06
     mixing beta               =       0.7000
     number of iterations used =            8  plain     mixing
     Exchange-correlation= SLA  PW   PSX  PSC
                           (   1   4  10   8   0   0   0)

     celldm(1)=   5.288246  celldm(2)=   0.000000  celldm(3)=   0.000000
     celldm(4)=   0.000000  celldm(5)=   0.000000  celldm(6)=   0.000000

     crystal axes: (cart. coord. in units of alat)
               a(1) = (   1.000000   0.000000   0.000000 )  
               a(2) = (   0.000000   1.000000   0.000000 )  
               a(3) = (   0.000000   0.000000   0.997009 )  

     reciprocal axes: (cart. coord. in units 2 pi/alat)
               b(1) = (  1.000000  0.000000  0.000000 )  
               b(2) = (  0.000000  1.000000  0.000000 )  
               b(3) = (  0.000000  0.000000  1.003000 )  


     PseudoPot. # 1 for Fe read from file:
     /home/nie0061/qe/pseudo/Fe.pbesol-spn-kjpaw_psl.1.0.0.UPF
     MD5 check sum: e30d5f36a6f0cb983ee41abee56170da
     Pseudo is Projector augmented-wave + core cor, Zval = 16.0
     Generated using &quot;atomic&quot; code by A. Dal Corso  v.6.3
     Shape of augmentation charge: PSQ
     Using radial grid of 1191 points,  6 beta functions with: 
                l(1) =   0
                l(2) =   0
                l(3) =   1
                l(4) =   1
                l(5) =   2
                l(6) =   2
     Q(r) pseudized with 0 coefficients 


     atomic species   valence    mass     pseudopotential
        Fe            16.00    55.84500     Fe( 1.00)

     Starting magnetic structure 
     atomic species   magnetization
        Fe           0.700

     16 Sym. Ops., with inversion, found



   Cartesian axes

     site n.     atom                  positions (alat units)
         1           Fe  tau(   1) = (   0.0000000   0.0000000   0.0000000  )
         2           Fe  tau(   2) = (   0.5000000   0.5000000   0.4985045  )

     number of k points=   126  Gaussian smearing, width (Ry)=  0.0200

     Number of k-points >= 100: set verbosity='high' to print them.

     Dense  grid:    26137 G-vectors     FFT dimensions: (  40,  40,  40)

     Smooth grid:     9209 G-vectors     FFT dimensions: (  27,  27,  25)

     Estimated max dynamical RAM per process >       8.68 MB

     Estimated total dynamical RAM >     287.03 MB

     Check: negative core charge=   -0.000003
     Generating pointlists ...
     new r_m :   0.3569 (alat units)  1.8873 (a.u.) for type    1

     Initial potential from superposition of free atoms

     starting charge      31.9992, renormalised to      32.0000
     Starting wfcs are   20 randomized atomic wfcs
     Checking if some PAW data can be deallocated... 

     total cpu time spent up to now is        0.4 secs

     Self-consistent Calculation

     iteration #  1     ecut=    60.00 Ry     beta= 0.70
     Davidson diagonalization with overlap
     ethr =  1.00E-02,  avg # of iterations =  3.4

     negative rho (up, down):  0.000E+00 5.682E-04

     total cpu time spent up to now is        1.2 secs

     total energy              =    -653.29872745 Ry
     estimated scf accuracy    <       3.10145479 Ry

     total magnetization       =     7.31 Bohr mag/cell
     absolute magnetization    =     7.44 Bohr mag/cell

     iteration #  2     ecut=    60.00 Ry     beta= 0.70
     Davidson diagonalization with overlap
     ethr =  9.69E-03,  avg # of iterations =  1.0

     negative rho (up, down):  0.000E+00 4.467E-04

     total cpu time spent up to now is        1.7 secs

     total energy              =    -653.68250749 Ry
     estimated scf accuracy    <       0.54670432 Ry

     total magnetization       =     5.97 Bohr mag/cell
     absolute magnetization    =     6.32 Bohr mag/cell

     iteration #  3     ecut=    60.00 Ry     beta= 0.70
     Davidson diagonalization with overlap
     ethr =  1.71E-03,  avg # of iterations =  2.8

     negative rho (up, down):  0.000E+00 5.155E-04

     total cpu time spent up to now is        2.5 secs

     total energy              =    -653.72174338 Ry
     estimated scf accuracy    <       0.53322550 Ry

     total magnetization       =     4.58 Bohr mag/cell
     absolute magnetization    =     4.87 Bohr mag/cell

     iteration #  4     ecut=    60.00 Ry     beta= 0.70
     Davidson diagonalization with overlap
     ethr =  1.67E-03,  avg # of iterations =  2.2

     negative rho (up, down):  0.000E+00 2.828E-04

     total cpu time spent up to now is        3.0 secs

     total energy              =    -653.80410295 Ry
     estimated scf accuracy    <       0.00649665 Ry

     total magnetization       =     4.48 Bohr mag/cell
     absolute magnetization    =     4.77 Bohr mag/cell

     iteration #  5     ecut=    60.00 Ry     beta= 0.70
     Davidson diagonalization with overlap
     ethr =  2.03E-05,  avg # of iterations =  4.5

     negative rho (up, down):  0.000E+00 2.498E-04

     total cpu time spent up to now is        3.9 secs

     total energy              =    -653.81251234 Ry
     estimated scf accuracy    <       0.00963840 Ry

     total magnetization       =     4.28 Bohr mag/cell
     absolute magnetization    =     4.48 Bohr mag/cell

     iteration #  6     ecut=    60.00 Ry     beta= 0.70
     Davidson diagonalization with overlap
     ethr =  2.03E-05,  avg # of iterations =  1.6

     negative rho (up, down):  0.000E+00 1.761E-04

     total cpu time spent up to now is        4.5 secs

     total energy              =    -653.81081549 Ry
     estimated scf accuracy    <       0.01856180 Ry

     total magnetization       =     4.24 Bohr mag/cell
     absolute magnetization    =     4.44 Bohr mag/cell

     iteration #  7     ecut=    60.00 Ry     beta= 0.70
     Davidson diagonalization with overlap
     ethr =  2.03E-05,  avg # of iterations =  2.2

     negative rho (up, down):  0.000E+00 1.647E-04

     total cpu time spent up to now is        5.1 secs

     total energy              =    -653.81253512 Ry
     estimated scf accuracy    <       0.00071193 Ry

     total magnetization       =     4.18 Bohr mag/cell
     absolute magnetization    =     4.37 Bohr mag/cell

     iteration #  8     ecut=    60.00 Ry     beta= 0.70
     Davidson diagonalization with overlap
     ethr =  2.22E-06,  avg # of iterations =  2.4

     negative rho (up, down):  0.000E+00 1.538E-04

     total cpu time spent up to now is        5.7 secs

     total energy              =    -653.81270992 Ry
     estimated scf accuracy    <       0.00008196 Ry

     total magnetization       =     4.20 Bohr mag/cell
     absolute magnetization    =     4.39 Bohr mag/cell

     iteration #  9     ecut=    60.00 Ry     beta= 0.70
     Davidson diagonalization with overlap
     ethr =  2.56E-07,  avg # of iterations =  1.7

     negative rho (up, down):  0.000E+00 1.566E-04

     total cpu time spent up to now is        6.3 secs

     total energy              =    -653.81273113 Ry
     estimated scf accuracy    <       0.00000190 Ry

     total magnetization       =     4.19 Bohr mag/cell
     absolute magnetization    =     4.37 Bohr mag/cell

     iteration # 10     ecut=    60.00 Ry     beta= 0.70
     Davidson diagonalization with overlap
     ethr =  5.92E-09,  avg # of iterations =  2.4

     negative rho (up, down):  0.000E+00 1.565E-04
 
     Magnetic moment per site  (integrated on atomic sphere of radius R)
     atom   1 (R=0.357)  charge= 14.3553  magn=  2.1255
     atom   2 (R=0.357)  charge= 14.3567  magn=  2.1251

     total cpu time spent up to now is        6.9 secs

     End of self-consistent calculation

     Number of k-points >= 100: set verbosity='high' to print the bands.

     the Fermi energy is    19.0891 ev

!    total energy              =    -653.81273104 Ry
     total all-electron energy =     -5086.464150 Ry
     estimated scf accuracy    <       0.00000076 Ry
     smearing contrib. (-TS)   =      -0.00473456 Ry
     internal energy E=F+TS    =    -653.80799648 Ry

     The total energy is F=E-TS. E is the sum of the following terms:
     one-electron contribution =    -211.74184210 Ry
     hartree contribution      =     126.97296170 Ry
     xc contribution           =     -54.90240866 Ry
     ewald contribution        =    -352.69705752 Ry
     one-center paw contrib.   =    -161.43964990 Ry

     total magnetization       =     4.19 Bohr mag/cell
     absolute magnetization    =     4.37 Bohr mag/cell

     convergence has been achieved in  10 iterations

     Writing all to output data dir ./pwscf.save/
 
     init_run     :      0.30s CPU      0.35s WALL (       1 calls)
     electrons    :      6.19s CPU      6.48s WALL (       1 calls)

     Called by init_run:
     wfcinit      :      0.13s CPU      0.13s WALL (       1 calls)
     potinit      :      0.09s CPU      0.12s WALL (       1 calls)
     hinit0       :      0.06s CPU      0.06s WALL (       1 calls)

     Called by electrons:
     c_bands      :      4.60s CPU      4.83s WALL (      10 calls)
     sum_band     :      0.66s CPU      0.70s WALL (      10 calls)
     v_of_rho     :      0.06s CPU      0.06s WALL (      11 calls)
     newd         :      0.03s CPU      0.03s WALL (      11 calls)
     PAW_pot      :      0.90s CPU      0.93s WALL (      11 calls)
     mix_rho      :      0.01s CPU      0.01s WALL (      10 calls)

     Called by c_bands:
     init_us_2    :      0.05s CPU      0.05s WALL (    1764 calls)
     init_us_2:cp :      0.05s CPU      0.05s WALL (    1764 calls)
     cegterg      :      3.84s CPU      4.05s WALL (     840 calls)

     Called by *egterg:
     cdiaghg      :      1.10s CPU      1.14s WALL (    2882 calls)
     h_psi        :      2.49s CPU      2.64s WALL (    2966 calls)
     s_psi        :      0.04s CPU      0.04s WALL (    2966 calls)
     g_psi        :      0.01s CPU      0.01s WALL (    2042 calls)

     Called by h_psi:
     h_psi:calbec :      0.09s CPU      0.09s WALL (    2966 calls)
     vloc_psi     :      2.33s CPU      2.47s WALL (    2966 calls)
     add_vuspsi   :      0.04s CPU      0.05s WALL (    2966 calls)

     General routines
     calbec       :      0.11s CPU      0.12s WALL (    3806 calls)
     fft          :      0.02s CPU      0.03s WALL (     269 calls)
     ffts         :      0.00s CPU      0.00s WALL (      42 calls)
     fftw         :      2.49s CPU      2.64s WALL (  102598 calls)
     interpolate  :      0.00s CPU      0.01s WALL (      22 calls)
 
     Parallel routines
 
     PWSCF        :      6.67s CPU      7.22s WALL

 
   This run was terminated on:  12:20:13  14Nov2022            

=------------------------------------------------------------------------------=
   JOB DONE.
=------------------------------------------------------------------------------=
