       N       E                     dE             d eps       ncg     rms          rms(c)
DAV:   1    -0.165267074939E+02   -0.16527E+02   -0.23441E-01898392   0.196E+01
DAV:   2    -0.165267339333E+02   -0.26439E-04   -0.26446E-04******   0.125E-01
DAV:   3    -0.165267340056E+02   -0.72304E-07   -0.72428E-07957408   0.700E-03
DAV:   4    -0.165267340076E+02   -0.20282E-08   -0.95045E-09******   0.702E-04
DAV:   5    -0.165267340058E+02    0.18108E-08   -0.17557E-10766536   0.928E-05
DAV:   6    -0.165267340060E+02   -0.20918E-09   -0.13852E-11641472   0.293E-05
   1 F= -.16526734E+02 E0= -.16526734E+02  d E =0.000000E+00  mag=     0.0000     0.0000     4.3285
