       N       E                     dE             d eps       ncg     rms          rms(c)
DAV:   1    -0.165243046650E+02   -0.16524E+02   -0.23427E-01897936   0.196E+01
DAV:   2    -0.165243302511E+02   -0.25586E-04   -0.25589E-04******   0.124E-01
DAV:   3    -0.165243303222E+02   -0.71101E-07   -0.71544E-07956640   0.702E-03
DAV:   4    -0.165243303234E+02   -0.11923E-08   -0.95213E-09******   0.705E-04
DAV:   5    -0.165243303230E+02    0.37562E-09   -0.17446E-10751848   0.939E-05
   1 F= -.16524330E+02 E0= -.16524330E+02  d E =0.000000E+00  mag=     0.0000     0.0000     4.3324
