 CRYSTAL
 PRIMVEC
2.8235294 .0000000 .0000000
.0000000 2.7900488 .0000000
.0000000 .0000000 2.7900488
 PRIMCOORD
           2  1
  26  .0000000 .0000000 .0000000
  26  1.4117647 1.3950244 1.3950244
 
