 # 229 Fe_pv
 
           2  atoms
           1  atom types
 
      0.000000000000       2.851470258000  xlo xhi
      0.000000000000       2.851470258000  ylo yhi
      0.000000000000       2.851470258000  zlo zhi
 
Masses
 
            1   55.84500000             # Fe
 
Atoms # atomic
 
         1    1        0.000000000000       0.000000000000       0.000000000000
         2    1        1.425735129000       1.425735129000       1.425735129000
