       N       E                     dE             d eps       ncg     rms          rms(c)
DAV:   1    -0.165256129518E+02   -0.16526E+02   -0.23434E-01898080   0.196E+01
DAV:   2    -0.165256390125E+02   -0.26061E-04   -0.26063E-04******   0.125E-01
DAV:   3    -0.165256390841E+02   -0.71616E-07   -0.72063E-07953496   0.705E-03
DAV:   4    -0.165256390857E+02   -0.15307E-08   -0.96070E-09******   0.710E-04
DAV:   5    -0.165256390857E+02   -0.73669E-10   -0.17773E-10758736   0.948E-05
   1 F= -.16525639E+02 E0= -.16525639E+02  d E =0.000000E+00  mag=     0.0000     0.0000     4.3303
