       N       E                     dE             d eps       ncg     rms          rms(c)
DAV:   1    -0.165267127530E+02   -0.16527E+02   -0.23442E-01897240   0.196E+01
DAV:   2    -0.165267391032E+02   -0.26350E-04   -0.26356E-04******   0.124E-01
DAV:   3    -0.165267391753E+02   -0.72167E-07   -0.72111E-07953256   0.699E-03
DAV:   4    -0.165267391765E+02   -0.11205E-08   -0.94718E-09******   0.700E-04
DAV:   5    -0.165267391769E+02   -0.43292E-09   -0.17525E-10767112   0.926E-05
   1 F= -.16526739E+02 E0= -.16526739E+02  d E =0.000000E+00  mag=     0.0000     0.0000     4.3285
