       N       E                     dE             d eps       ncg     rms          rms(c)
DAV:   1    -0.165257631896E+02   -0.16526E+02   -0.23432E-01898032   0.196E+01
DAV:   2    -0.165257891653E+02   -0.25976E-04   -0.25981E-04******   0.124E-01
DAV:   3    -0.165257892364E+02   -0.71091E-07   -0.71575E-07956568   0.701E-03
DAV:   4    -0.165257892374E+02   -0.10232E-08   -0.95104E-09******   0.703E-04
DAV:   5    -0.165257892378E+02   -0.43019E-09   -0.17478E-10754368   0.938E-05
   1 F= -.16525789E+02 E0= -.16525789E+02  d E =0.000000E+00  mag=     0.0000     0.0000     4.3304
