       N       E                     dE             d eps       ncg     rms          rms(c)
DAV:   1    -0.165269863157E+02   -0.16527E+02   -0.23435E-01898896   0.196E+01
DAV:   2    -0.165270128520E+02   -0.26536E-04   -0.26540E-04******   0.124E-01
DAV:   3    -0.165270129240E+02   -0.72015E-07   -0.72202E-07956496   0.702E-03
DAV:   4    -0.165270129254E+02   -0.14561E-08   -0.95368E-09******   0.705E-04
DAV:   5    -0.165270129239E+02    0.14988E-08   -0.17457E-10756408   0.938E-05
DAV:   6    -0.165270129253E+02   -0.13370E-08   -0.15288E-11648096   0.313E-05
DAV:   7    -0.165270129255E+02   -0.18281E-09   -0.33882E-12511176   0.159E-05
   1 F= -.16527013E+02 E0= -.16527013E+02  d E =0.000000E+00  mag=     0.0000     0.0000     4.3285
