       N       E                     dE             d eps       ncg     rms          rms(c)
DAV:   1    -0.165269883379E+02   -0.16527E+02   -0.23439E-01898032   0.196E+01
DAV:   2    -0.165270150725E+02   -0.26735E-04   -0.26741E-04******   0.124E-01
DAV:   3    -0.165270151440E+02   -0.71551E-07   -0.72578E-07954336   0.700E-03
DAV:   4    -0.165270151458E+02   -0.18263E-08   -0.95032E-09******   0.702E-04
DAV:   5    -0.165270151465E+02   -0.60299E-09   -0.17506E-10766464   0.928E-05
   1 F= -.16527015E+02 E0= -.16527015E+02  d E =0.000000E+00  mag=     0.0000     0.0000     4.3285
