
     Program PWSCF v.7.1 starts on 14Nov2022 at 12:20:42 

     This program is part of the open-source Quantum ESPRESSO suite
     for quantum simulation of materials; please cite
         "P. Giannozzi et al., J. Phys.:Condens. Matter 21 395502 (2009);
         "P. Giannozzi et al., J. Phys.:Condens. Matter 29 465901 (2017);
         "P. Giannozzi et al., J. Chem. Phys. 152 154105 (2020);
          URL http://www.quantum-espresso.org", 
     in publications or presentations arising from this work. More details at
     http://www.quantum-espresso.org/quote

     Parallel version (MPI & OpenMP), running on      36 processor cores
     Number of MPI processes:                36
     Threads/MPI process:                     1

     MPI processes distributed on     1 nodes
     177756 MiB available memory on the printing compute node when the environment starts
 
     Waiting for input...
     Reading input from standard input
Warning: card &CELL ignored
Warning: card / ignored

     Current dimensions of program PWSCF are:
     Max number of different atomic species (ntypx) = 10
     Max number of k-points (npk) =  40000
     Max angular momentum in pseudopotentials (lmaxx) =  4
     file Fe.pbesol-spn-kjpaw_psl.1.0.0.UPF: wavefunction(s)  3P 3D renormalized
     Found identity + ( -0.5000 -0.5000  0.5000) symmetry
     This is a supercell, fractional translations are disabled
     Message from routine setup:
     using ibrav=0 with symmetry is DISCOURAGED, use correct ibrav instead
 
     K-points division:     npool     =       3
     R & G space division:  proc/nbgrp/npool/nimage =      12
     Subspace diagonalization in iterative solution of the eigenvalue problem:
     a serial algorithm will be used

 
     Parallelization info
     --------------------
     sticks:   dense  smooth     PW     G-vecs:    dense   smooth      PW
     Min          91      46     14                 2235      792     144
     Max          92      47     15                 2238      793     147
     Sum        1093     553    177                26825     9505    1743
 
     Using Slab Decomposition
 

     Title: 
     #                                                                          


     bravais-lattice index     =            0
     lattice parameter (alat)  =       5.3515  a.u.
     unit-cell volume          =     150.9955 (a.u.)^3
     number of atoms/cell      =            2
     number of atomic types    =            1
     number of electrons       =        32.00
     number of Kohn-Sham states=           20
     kinetic-energy cutoff     =      60.0000  Ry
     charge density cutoff     =     480.0000  Ry
     scf convergence threshold =      1.0E-06
     mixing beta               =       0.7000
     number of iterations used =            8  plain     mixing
     Exchange-correlation= SLA  PW   PSX  PSC
                           (   1   4  10   8   0   0   0)

     celldm(1)=   5.351515  celldm(2)=   0.000000  celldm(3)=   0.000000
     celldm(4)=   0.000000  celldm(5)=   0.000000  celldm(6)=   0.000000

     crystal axes: (cart. coord. in units of alat)
               a(1) = (   1.000000   0.000000   0.000000 )  
               a(2) = (   0.000000   1.000000   0.000000 )  
               a(3) = (   0.000000   0.000000   0.985222 )  

     reciprocal axes: (cart. coord. in units 2 pi/alat)
               b(1) = (  1.000000  0.000000  0.000000 )  
               b(2) = (  0.000000  1.000000  0.000000 )  
               b(3) = (  0.000000  0.000000  1.015000 )  


     PseudoPot. # 1 for Fe read from file:
     /home/nie0061/qe/pseudo/Fe.pbesol-spn-kjpaw_psl.1.0.0.UPF
     MD5 check sum: e30d5f36a6f0cb983ee41abee56170da
     Pseudo is Projector augmented-wave + core cor, Zval = 16.0
     Generated using &quot;atomic&quot; code by A. Dal Corso  v.6.3
     Shape of augmentation charge: PSQ
     Using radial grid of 1191 points,  6 beta functions with: 
                l(1) =   0
                l(2) =   0
                l(3) =   1
                l(4) =   1
                l(5) =   2
                l(6) =   2
     Q(r) pseudized with 0 coefficients 


     atomic species   valence    mass     pseudopotential
        Fe            16.00    55.84500     Fe( 1.00)

     Starting magnetic structure 
     atomic species   magnetization
        Fe           0.700

     16 Sym. Ops., with inversion, found



   Cartesian axes

     site n.     atom                  positions (alat units)
         1           Fe  tau(   1) = (   0.0000000   0.0000000   0.0000000  )
         2           Fe  tau(   2) = (   0.5000000   0.5000000   0.4926108  )

     number of k points=   126  Gaussian smearing, width (Ry)=  0.0200

     Number of k-points >= 100: set verbosity='high' to print them.

     Dense  grid:    26825 G-vectors     FFT dimensions: (  40,  40,  40)

     Smooth grid:     9505 G-vectors     FFT dimensions: (  27,  27,  25)

     Estimated max dynamical RAM per process >       8.83 MB

     Estimated total dynamical RAM >     291.77 MB

     Check: negative core charge=   -0.000003
     Generating pointlists ...
     new r_m :   0.3555 (alat units)  1.9024 (a.u.) for type    1

     Initial potential from superposition of free atoms

     starting charge      31.9992, renormalised to      32.0000
     Starting wfcs are   20 randomized atomic wfcs
     Checking if some PAW data can be deallocated... 

     total cpu time spent up to now is        0.4 secs

     Self-consistent Calculation

     iteration #  1     ecut=    60.00 Ry     beta= 0.70
     Davidson diagonalization with overlap
     ethr =  1.00E-02,  avg # of iterations =  3.5

     negative rho (up, down):  0.000E+00 5.889E-04

     total cpu time spent up to now is        1.2 secs

     total energy              =    -653.28870169 Ry
     estimated scf accuracy    <       3.06137174 Ry

     total magnetization       =     7.46 Bohr mag/cell
     absolute magnetization    =     7.56 Bohr mag/cell

     iteration #  2     ecut=    60.00 Ry     beta= 0.70
     Davidson diagonalization with overlap
     ethr =  9.57E-03,  avg # of iterations =  1.2

     negative rho (up, down):  0.000E+00 4.677E-04

     total cpu time spent up to now is        1.7 secs

     total energy              =    -653.67566889 Ry
     estimated scf accuracy    <       0.56102733 Ry

     total magnetization       =     6.04 Bohr mag/cell
     absolute magnetization    =     6.37 Bohr mag/cell

     iteration #  3     ecut=    60.00 Ry     beta= 0.70
     Davidson diagonalization with overlap
     ethr =  1.75E-03,  avg # of iterations =  2.9

     negative rho (up, down):  0.000E+00 5.420E-04

     total cpu time spent up to now is        2.4 secs

     total energy              =    -653.71119102 Ry
     estimated scf accuracy    <       0.59280336 Ry

     total magnetization       =     4.70 Bohr mag/cell
     absolute magnetization    =     4.97 Bohr mag/cell

     iteration #  4     ecut=    60.00 Ry     beta= 0.70
     Davidson diagonalization with overlap
     ethr =  1.75E-03,  avg # of iterations =  2.2

     negative rho (up, down):  0.000E+00 3.613E-04

     total cpu time spent up to now is        3.0 secs

     total energy              =    -653.80277908 Ry
     estimated scf accuracy    <       0.00751755 Ry

     total magnetization       =     4.56 Bohr mag/cell
     absolute magnetization    =     4.85 Bohr mag/cell

     iteration #  5     ecut=    60.00 Ry     beta= 0.70
     Davidson diagonalization with overlap
     ethr =  2.35E-05,  avg # of iterations =  4.6

     negative rho (up, down):  0.000E+00 2.913E-04

     total cpu time spent up to now is        3.9 secs

     total energy              =    -653.79549189 Ry
     estimated scf accuracy    <       0.38273833 Ry

     total magnetization       =     4.31 Bohr mag/cell
     absolute magnetization    =     4.53 Bohr mag/cell

     iteration #  6     ecut=    60.00 Ry     beta= 0.70
     Davidson diagonalization with overlap
     ethr =  2.35E-05,  avg # of iterations =  3.3

     negative rho (up, down):  0.000E+00 2.026E-04

     total cpu time spent up to now is        4.6 secs

     total energy              =    -653.80940150 Ry
     estimated scf accuracy    <       0.00774689 Ry

     total magnetization       =     4.35 Bohr mag/cell
     absolute magnetization    =     4.57 Bohr mag/cell

     iteration #  7     ecut=    60.00 Ry     beta= 0.70
     Davidson diagonalization with overlap
     ethr =  2.35E-05,  avg # of iterations =  2.5

     negative rho (up, down):  0.000E+00 1.714E-04

     total cpu time spent up to now is        5.2 secs

     total energy              =    -653.81154605 Ry
     estimated scf accuracy    <       0.00071910 Ry

     total magnetization       =     4.27 Bohr mag/cell
     absolute magnetization    =     4.47 Bohr mag/cell

     iteration #  8     ecut=    60.00 Ry     beta= 0.70
     Davidson diagonalization with overlap
     ethr =  2.25E-06,  avg # of iterations =  2.2

     negative rho (up, down):  0.000E+00 1.676E-04

     total cpu time spent up to now is        5.8 secs

     total energy              =    -653.81170065 Ry
     estimated scf accuracy    <       0.00002753 Ry

     total magnetization       =     4.27 Bohr mag/cell
     absolute magnetization    =     4.46 Bohr mag/cell

     iteration #  9     ecut=    60.00 Ry     beta= 0.70
     Davidson diagonalization with overlap
     ethr =  8.60E-08,  avg # of iterations =  1.8

     negative rho (up, down):  0.000E+00 1.735E-04

     total cpu time spent up to now is        6.4 secs

     total energy              =    -653.81170172 Ry
     estimated scf accuracy    <       0.00001246 Ry

     total magnetization       =     4.26 Bohr mag/cell
     absolute magnetization    =     4.45 Bohr mag/cell

     iteration # 10     ecut=    60.00 Ry     beta= 0.70
     Davidson diagonalization with overlap
     ethr =  3.89E-08,  avg # of iterations =  2.5

     negative rho (up, down):  0.000E+00 1.727E-04

     total cpu time spent up to now is        7.1 secs

     total energy              =    -653.81170561 Ry
     estimated scf accuracy    <       0.00000291 Ry

     total magnetization       =     4.26 Bohr mag/cell
     absolute magnetization    =     4.46 Bohr mag/cell

     iteration # 11     ecut=    60.00 Ry     beta= 0.70
     Davidson diagonalization with overlap
     ethr =  9.08E-09,  avg # of iterations =  1.5

     negative rho (up, down):  0.000E+00 1.721E-04
 
     Magnetic moment per site  (integrated on atomic sphere of radius R)
     atom   1 (R=0.355)  charge= 14.3762  magn=  2.1666
     atom   2 (R=0.355)  charge= 14.3763  magn=  2.1673

     total cpu time spent up to now is        7.6 secs

     End of self-consistent calculation

     Number of k-points >= 100: set verbosity='high' to print the bands.

     the Fermi energy is    18.5260 ev

!    total energy              =    -653.81170568 Ry
     total all-electron energy =     -5086.463124 Ry
     estimated scf accuracy    <       0.00000025 Ry
     smearing contrib. (-TS)   =      -0.00483185 Ry
     internal energy E=F+TS    =    -653.80687382 Ry

     The total energy is F=E-TS. E is the sum of the following terms:
     one-electron contribution =    -216.16674587 Ry
     hartree contribution      =     128.58200300 Ry
     xc contribution           =     -54.87278923 Ry
     ewald contribution        =    -349.91021303 Ry
     one-center paw contrib.   =    -161.43912868 Ry

     total magnetization       =     4.26 Bohr mag/cell
     absolute magnetization    =     4.45 Bohr mag/cell

     convergence has been achieved in  11 iterations

     Writing all to output data dir ./pwscf.save/
 
     init_run     :      0.29s CPU      0.35s WALL (       1 calls)
     electrons    :      6.85s CPU      7.17s WALL (       1 calls)

     Called by init_run:
     wfcinit      :      0.12s CPU      0.14s WALL (       1 calls)
     potinit      :      0.09s CPU      0.12s WALL (       1 calls)
     hinit0       :      0.06s CPU      0.07s WALL (       1 calls)

     Called by electrons:
     c_bands      :      5.12s CPU      5.37s WALL (      11 calls)
     sum_band     :      0.72s CPU      0.76s WALL (      11 calls)
     v_of_rho     :      0.06s CPU      0.07s WALL (      12 calls)
     newd         :      0.03s CPU      0.03s WALL (      12 calls)
     PAW_pot      :      0.97s CPU      1.01s WALL (      12 calls)
     mix_rho      :      0.01s CPU      0.01s WALL (      11 calls)

     Called by c_bands:
     init_us_2    :      0.06s CPU      0.06s WALL (    1932 calls)
     init_us_2:cp :      0.05s CPU      0.06s WALL (    1932 calls)
     cegterg      :      4.28s CPU      4.50s WALL (     924 calls)

     Called by *egterg:
     cdiaghg      :      1.26s CPU      1.31s WALL (    3228 calls)
     h_psi        :      2.72s CPU      2.89s WALL (    3312 calls)
     s_psi        :      0.04s CPU      0.05s WALL (    3312 calls)
     g_psi        :      0.01s CPU      0.02s WALL (    2304 calls)

     Called by h_psi:
     h_psi:calbec :      0.10s CPU      0.10s WALL (    3312 calls)
     vloc_psi     :      2.55s CPU      2.71s WALL (    3312 calls)
     add_vuspsi   :      0.05s CPU      0.05s WALL (    3312 calls)

     General routines
     calbec       :      0.12s CPU      0.13s WALL (    4236 calls)
     fft          :      0.02s CPU      0.03s WALL (     294 calls)
     ffts         :      0.00s CPU      0.00s WALL (      46 calls)
     fftw         :      2.72s CPU      2.88s WALL (  113672 calls)
     interpolate  :      0.00s CPU      0.00s WALL (      24 calls)
 
     Parallel routines
 
     PWSCF        :      7.32s CPU      7.99s WALL

 
   This run was terminated on:  12:20:50  14Nov2022            

=------------------------------------------------------------------------------=
   JOB DONE.
=------------------------------------------------------------------------------=
