 CRYSTAL
 PRIMVEC
2.7742421 .0000000 .0000000
.0000000 2.7742421 .0000000
.0000000 .0000000 2.7742421
 PRIMCOORD
           2  1
  26  .0000000 .0000000 .0000000
  26  1.3871211 1.3871211 1.3871211
 
