
     Program PWSCF v.7.1 starts on 14Nov2022 at 12:19:50 

     This program is part of the open-source Quantum ESPRESSO suite
     for quantum simulation of materials; please cite
         "P. Giannozzi et al., J. Phys.:Condens. Matter 21 395502 (2009);
         "P. Giannozzi et al., J. Phys.:Condens. Matter 29 465901 (2017);
         "P. Giannozzi et al., J. Chem. Phys. 152 154105 (2020);
          URL http://www.quantum-espresso.org", 
     in publications or presentations arising from this work. More details at
     http://www.quantum-espresso.org/quote

     Parallel version (MPI & OpenMP), running on      36 processor cores
     Number of MPI processes:                36
     Threads/MPI process:                     1

     MPI processes distributed on     1 nodes
     178380 MiB available memory on the printing compute node when the environment starts
 
     Waiting for input...
     Reading input from standard input
Warning: card &CELL ignored
Warning: card / ignored

     Current dimensions of program PWSCF are:
     Max number of different atomic species (ntypx) = 10
     Max number of k-points (npk) =  40000
     Max angular momentum in pseudopotentials (lmaxx) =  4
     file Fe.pbesol-spn-kjpaw_psl.1.0.0.UPF: wavefunction(s)  3P 3D renormalized
     Found identity + ( -0.5000 -0.5000 -0.5000) symmetry
     This is a supercell, fractional translations are disabled
     Message from routine setup:
     using ibrav=0 with symmetry is DISCOURAGED, use correct ibrav instead
 
     K-points division:     npool     =       3
     R & G space division:  proc/nbgrp/npool/nimage =      12
     Subspace diagonalization in iterative solution of the eigenvalue problem:
     a serial algorithm will be used

 
     Parallelization info
     --------------------
     sticks:   dense  smooth     PW     G-vecs:    dense   smooth      PW
     Min          87      43     14                 2145      757     141
     Max          88      44     16                 2148      762     143
     Sum        1049     517    177                25749     9093    1703
 
     Using Slab Decomposition
 

     Title: 
     #                                                                          


     bravais-lattice index     =            0
     lattice parameter (alat)  =       5.2566  a.u.
     unit-cell volume          =     145.6875 (a.u.)^3
     number of atoms/cell      =            2
     number of atomic types    =            1
     number of electrons       =        32.00
     number of Kohn-Sham states=           20
     kinetic-energy cutoff     =      60.0000  Ry
     charge density cutoff     =     480.0000  Ry
     scf convergence threshold =      1.0E-06
     mixing beta               =       0.7000
     number of iterations used =            8  plain     mixing
     Exchange-correlation= SLA  PW   PSX  PSC
                           (   1   4  10   8   0   0   0)

     celldm(1)=   5.256611  celldm(2)=   0.000000  celldm(3)=   0.000000
     celldm(4)=   0.000000  celldm(5)=   0.000000  celldm(6)=   0.000000

     crystal axes: (cart. coord. in units of alat)
               a(1) = (   1.000000   0.000000   0.000000 )  
               a(2) = (   0.000000   1.000000   0.000000 )  
               a(3) = (   0.000000   0.000000   1.003009 )  

     reciprocal axes: (cart. coord. in units 2 pi/alat)
               b(1) = (  1.000000  0.000000  0.000000 )  
               b(2) = (  0.000000  1.000000  0.000000 )  
               b(3) = (  0.000000  0.000000  0.997000 )  


     PseudoPot. # 1 for Fe read from file:
     /home/nie0061/qe/pseudo/Fe.pbesol-spn-kjpaw_psl.1.0.0.UPF
     MD5 check sum: e30d5f36a6f0cb983ee41abee56170da
     Pseudo is Projector augmented-wave + core cor, Zval = 16.0
     Generated using &quot;atomic&quot; code by A. Dal Corso  v.6.3
     Shape of augmentation charge: PSQ
     Using radial grid of 1191 points,  6 beta functions with: 
                l(1) =   0
                l(2) =   0
                l(3) =   1
                l(4) =   1
                l(5) =   2
                l(6) =   2
     Q(r) pseudized with 0 coefficients 


     atomic species   valence    mass     pseudopotential
        Fe            16.00    55.84500     Fe( 1.00)

     Starting magnetic structure 
     atomic species   magnetization
        Fe           0.700

     16 Sym. Ops., with inversion, found



   Cartesian axes

     site n.     atom                  positions (alat units)
         1           Fe  tau(   1) = (   0.0000000   0.0000000   0.0000000  )
         2           Fe  tau(   2) = (   0.5000000   0.5000000   0.5015045  )

     number of k points=   126  Gaussian smearing, width (Ry)=  0.0200

     Number of k-points >= 100: set verbosity='high' to print them.

     Dense  grid:    25749 G-vectors     FFT dimensions: (  40,  40,  40)

     Smooth grid:     9093 G-vectors     FFT dimensions: (  25,  25,  25)

     Estimated max dynamical RAM per process >       8.60 MB

     Estimated total dynamical RAM >     284.58 MB

     Check: negative core charge=   -0.000003
     Generating pointlists ...
     new r_m :   0.3576 (alat units)  1.8797 (a.u.) for type    1

     Initial potential from superposition of free atoms

     starting charge      31.9992, renormalised to      32.0000
     Starting wfcs are   20 randomized atomic wfcs
     Checking if some PAW data can be deallocated... 

     total cpu time spent up to now is        0.4 secs

     Self-consistent Calculation

     iteration #  1     ecut=    60.00 Ry     beta= 0.70
     Davidson diagonalization with overlap
     ethr =  1.00E-02,  avg # of iterations =  3.4

     negative rho (up, down):  0.000E+00 5.647E-04

     total cpu time spent up to now is        1.2 secs

     total energy              =    -653.28709472 Ry
     estimated scf accuracy    <       3.10038609 Ry

     total magnetization       =     7.35 Bohr mag/cell
     absolute magnetization    =     7.45 Bohr mag/cell

     iteration #  2     ecut=    60.00 Ry     beta= 0.70
     Davidson diagonalization with overlap
     ethr =  9.69E-03,  avg # of iterations =  1.0

     negative rho (up, down):  0.000E+00 4.400E-04

     total cpu time spent up to now is        1.6 secs

     total energy              =    -653.68135509 Ry
     estimated scf accuracy    <       0.55265450 Ry

     total magnetization       =     5.95 Bohr mag/cell
     absolute magnetization    =     6.29 Bohr mag/cell

     iteration #  3     ecut=    60.00 Ry     beta= 0.70
     Davidson diagonalization with overlap
     ethr =  1.73E-03,  avg # of iterations =  2.8

     negative rho (up, down):  0.000E+00 5.067E-04

     total cpu time spent up to now is        2.4 secs

     total energy              =    -653.72219852 Ry
     estimated scf accuracy    <       0.53383001 Ry

     total magnetization       =     4.54 Bohr mag/cell
     absolute magnetization    =     4.82 Bohr mag/cell

     iteration #  4     ecut=    60.00 Ry     beta= 0.70
     Davidson diagonalization with overlap
     ethr =  1.67E-03,  avg # of iterations =  2.3

     negative rho (up, down):  0.000E+00 3.272E-04

     total cpu time spent up to now is        2.9 secs

     total energy              =    -653.80388330 Ry
     estimated scf accuracy    <       0.00774008 Ry

     total magnetization       =     4.43 Bohr mag/cell
     absolute magnetization    =     4.71 Bohr mag/cell

     iteration #  5     ecut=    60.00 Ry     beta= 0.70
     Davidson diagonalization with overlap
     ethr =  2.42E-05,  avg # of iterations =  4.5

     negative rho (up, down):  0.000E+00 2.682E-04

     total cpu time spent up to now is        3.8 secs

     total energy              =    -653.79927525 Ry
     estimated scf accuracy    <       0.31536463 Ry

     total magnetization       =     4.20 Bohr mag/cell
     absolute magnetization    =     4.41 Bohr mag/cell

     iteration #  6     ecut=    60.00 Ry     beta= 0.70
     Davidson diagonalization with overlap
     ethr =  2.42E-05,  avg # of iterations =  3.0

     negative rho (up, down):  0.000E+00 1.609E-04

     total cpu time spent up to now is        4.5 secs

     total energy              =    -653.81034378 Ry
     estimated scf accuracy    <       0.00718737 Ry

     total magnetization       =     4.23 Bohr mag/cell
     absolute magnetization    =     4.43 Bohr mag/cell

     iteration #  7     ecut=    60.00 Ry     beta= 0.70
     Davidson diagonalization with overlap
     ethr =  2.25E-05,  avg # of iterations =  2.7

     negative rho (up, down):  0.000E+00 1.514E-04

     total cpu time spent up to now is        5.1 secs

     total energy              =    -653.81252387 Ry
     estimated scf accuracy    <       0.00111524 Ry

     total magnetization       =     4.14 Bohr mag/cell
     absolute magnetization    =     4.32 Bohr mag/cell

     iteration #  8     ecut=    60.00 Ry     beta= 0.70
     Davidson diagonalization with overlap
     ethr =  3.49E-06,  avg # of iterations =  2.2

     negative rho (up, down):  0.000E+00 1.445E-04

     total cpu time spent up to now is        5.7 secs

     total energy              =    -653.81271974 Ry
     estimated scf accuracy    <       0.00001427 Ry

     total magnetization       =     4.16 Bohr mag/cell
     absolute magnetization    =     4.33 Bohr mag/cell

     iteration #  9     ecut=    60.00 Ry     beta= 0.70
     Davidson diagonalization with overlap
     ethr =  4.46E-08,  avg # of iterations =  2.8

     negative rho (up, down):  0.000E+00 1.494E-04

     total cpu time spent up to now is        6.3 secs

     total energy              =    -653.81272404 Ry
     estimated scf accuracy    <       0.00000485 Ry

     total magnetization       =     4.15 Bohr mag/cell
     absolute magnetization    =     4.32 Bohr mag/cell

     iteration # 10     ecut=    60.00 Ry     beta= 0.70
     Davidson diagonalization with overlap
     ethr =  1.52E-08,  avg # of iterations =  3.3

     negative rho (up, down):  0.000E+00 1.488E-04

     total cpu time spent up to now is        7.0 secs

     total energy              =    -653.81272571 Ry
     estimated scf accuracy    <       0.00000255 Ry

     total magnetization       =     4.15 Bohr mag/cell
     absolute magnetization    =     4.33 Bohr mag/cell

     iteration # 11     ecut=    60.00 Ry     beta= 0.70
     Davidson diagonalization with overlap
     ethr =  7.97E-09,  avg # of iterations =  2.0

     negative rho (up, down):  0.000E+00 1.483E-04
 
     Magnetic moment per site  (integrated on atomic sphere of radius R)
     atom   1 (R=0.358)  charge= 14.3462  magn=  2.1043
     atom   2 (R=0.358)  charge= 14.3465  magn=  2.1047

     total cpu time spent up to now is        7.6 secs

     End of self-consistent calculation

     Number of k-points >= 100: set verbosity='high' to print the bands.

     the Fermi energy is    19.3775 ev

!    total energy              =    -653.81272599 Ry
     total all-electron energy =     -5086.464145 Ry
     estimated scf accuracy    <       0.00000010 Ry
     smearing contrib. (-TS)   =      -0.00470888 Ry
     internal energy E=F+TS    =    -653.80801711 Ry

     The total energy is F=E-TS. E is the sum of the following terms:
     one-electron contribution =    -209.51484446 Ry
     hartree contribution      =     126.17752200 Ry
     xc contribution           =     -54.91998296 Ry
     ewald contribution        =    -354.11068758 Ry
     one-center paw contrib.   =    -161.44002412 Ry

     total magnetization       =     4.15 Bohr mag/cell
     absolute magnetization    =     4.32 Bohr mag/cell

     convergence has been achieved in  11 iterations

     Writing all to output data dir ./pwscf.save/
 
     init_run     :      0.29s CPU      0.34s WALL (       1 calls)
     electrons    :      6.82s CPU      7.13s WALL (       1 calls)

     Called by init_run:
     wfcinit      :      0.12s CPU      0.13s WALL (       1 calls)
     potinit      :      0.09s CPU      0.12s WALL (       1 calls)
     hinit0       :      0.06s CPU      0.06s WALL (       1 calls)

     Called by electrons:
     c_bands      :      5.13s CPU      5.36s WALL (      11 calls)
     sum_band     :      0.68s CPU      0.73s WALL (      11 calls)
     v_of_rho     :      0.06s CPU      0.07s WALL (      12 calls)
     newd         :      0.03s CPU      0.03s WALL (      12 calls)
     PAW_pot      :      0.97s CPU      1.01s WALL (      12 calls)
     mix_rho      :      0.01s CPU      0.01s WALL (      11 calls)

     Called by c_bands:
     init_us_2    :      0.05s CPU      0.06s WALL (    1932 calls)
     init_us_2:cp :      0.05s CPU      0.06s WALL (    1932 calls)
     cegterg      :      4.33s CPU      4.54s WALL (     924 calls)

     Called by *egterg:
     cdiaghg      :      1.33s CPU      1.38s WALL (    3389 calls)
     h_psi        :      2.70s CPU      2.84s WALL (    3473 calls)
     s_psi        :      0.04s CPU      0.05s WALL (    3473 calls)
     g_psi        :      0.01s CPU      0.02s WALL (    2465 calls)

     Called by h_psi:
     h_psi:calbec :      0.10s CPU      0.10s WALL (    3473 calls)
     vloc_psi     :      2.53s CPU      2.66s WALL (    3473 calls)
     add_vuspsi   :      0.05s CPU      0.05s WALL (    3473 calls)

     General routines
     calbec       :      0.12s CPU      0.13s WALL (    4397 calls)
     fft          :      0.02s CPU      0.03s WALL (     294 calls)
     ffts         :      0.00s CPU      0.00s WALL (      46 calls)
     fftw         :      2.70s CPU      2.86s WALL (  113990 calls)
     interpolate  :      0.00s CPU      0.00s WALL (      24 calls)
 
     Parallel routines
 
     PWSCF        :      7.28s CPU      7.86s WALL

 
   This run was terminated on:  12:19:58  14Nov2022            

=------------------------------------------------------------------------------=
   JOB DONE.
=------------------------------------------------------------------------------=
