 CRYSTAL
 PRIMVEC
2.8253226 .0000000 .0000000
.0510764 2.8248609 .0000000
.0510764 .0501612 2.8244155
 PRIMCOORD
           2  1
  26  .0000000 .0000000 .0000000
  26  1.4637377 1.4375111 1.4122078
 
