       N       E                     dE             d eps       ncg     rms          rms(c)
DAV:   1     0.637351167719E+02    0.63735E+02   -0.22127E+04   128136   0.204E+03
DAV:   2    -0.136263100941E+02   -0.77361E+02   -0.76595E+02   133872   0.195E+02
DAV:   3    -0.140765228114E+02   -0.45021E+00   -0.45019E+00   144168   0.217E+01
DAV:   4    -0.140785840633E+02   -0.20613E-02   -0.20613E-02   173760   0.123E+00
DAV:   5    -0.140785955141E+02   -0.11451E-04   -0.11451E-04   145296   0.652E-02    0.314E+01
DAV:   6    -0.163579593859E+02   -0.22794E+01   -0.20598E+01   130272   0.382E+01    0.641E+00
DAV:   7    -0.165214247133E+02   -0.16347E+00   -0.11036E+00   129600   0.809E+00    0.398E+00
DAV:   8    -0.165485607360E+02   -0.27136E-01   -0.29954E-02   139680   0.151E+00    0.132E+00
DAV:   9    -0.165410485391E+02    0.75122E-02   -0.18275E-02   137544   0.831E-01    0.364E-01
DAV:  10    -0.165408390397E+02    0.20950E-03   -0.29118E-03   130104   0.540E-01    0.493E-02
DAV:  11    -0.165408863847E+02   -0.47345E-04   -0.90546E-05   133008   0.694E-02    0.262E-02
DAV:  12    -0.165408855170E+02    0.86775E-06   -0.82994E-06   146616   0.228E-02    0.986E-03
DAV:  13    -0.165408855136E+02    0.33660E-08   -0.12507E-06   136344   0.938E-03    0.423E-03
DAV:  14    -0.165408856637E+02   -0.15007E-06   -0.76959E-07   139920   0.409E-03    0.717E-04
DAV:  15    -0.165408857105E+02   -0.46837E-07   -0.87436E-09    66792   0.101E-03
   1 F= -.16540886E+02 E0= -.16540880E+02  d E =-.179668E-04  mag=     4.3488
