       N       E                     dE             d eps       ncg     rms          rms(c)
DAV:   1     0.649592412417E+02    0.64959E+02   -0.22141E+04   127992   0.203E+03
DAV:   2    -0.137509538660E+02   -0.78710E+02   -0.77907E+02   132984   0.196E+02
DAV:   3    -0.142241675244E+02   -0.47321E+00   -0.47319E+00   142608   0.222E+01
DAV:   4    -0.142264540558E+02   -0.22865E-02   -0.22865E-02   174744   0.131E+00
DAV:   5    -0.142264670217E+02   -0.12966E-04   -0.12967E-04   144816   0.696E-02    0.308E+01
DAV:   6    -0.163674428340E+02   -0.21410E+01   -0.21430E+01   130440   0.386E+01    0.666E+00
DAV:   7    -0.165163226685E+02   -0.14888E+00   -0.13411E+00   129360   0.882E+00    0.408E+00
DAV:   8    -0.165388521328E+02   -0.22529E-01   -0.36058E-02   139824   0.154E+00    0.130E+00
DAV:   9    -0.165319161390E+02    0.69360E-02   -0.20507E-02   136608   0.859E-01    0.388E-01
DAV:  10    -0.165314427183E+02    0.47342E-03   -0.28202E-03   130416   0.554E-01    0.545E-02
DAV:  11    -0.165314931115E+02   -0.50393E-04   -0.10462E-04   133656   0.694E-02    0.272E-02
DAV:  12    -0.165314923691E+02    0.74234E-06   -0.95051E-06   145008   0.240E-02    0.109E-02
DAV:  13    -0.165314924873E+02   -0.11816E-06   -0.12766E-06   135696   0.104E-02    0.445E-03
DAV:  14    -0.165314925828E+02   -0.95499E-07   -0.10239E-06   141768   0.461E-03    0.708E-04
DAV:  15    -0.165314926022E+02   -0.19399E-07   -0.12363E-08    66264   0.111E-03
   1 F= -.16531493E+02 E0= -.16531462E+02  d E =-.921874E-04  mag=     4.4336
