       N       E                     dE             d eps       ncg     rms          rms(c)
DAV:   1     0.629014691432E+02    0.62901E+02   -0.22109E+04   148248   0.206E+03
DAV:   2    -0.134675893050E+02   -0.76369E+02   -0.75639E+02   155160   0.195E+02
DAV:   3    -0.139022247987E+02   -0.43464E+00   -0.43462E+00   165600   0.214E+01
DAV:   4    -0.139041434842E+02   -0.19187E-02   -0.19187E-02   198552   0.119E+00
DAV:   5    -0.139041537325E+02   -0.10248E-04   -0.10246E-04   168120   0.618E-02    0.321E+01
DAV:   6    -0.163322805415E+02   -0.24281E+01   -0.19762E+01   150456   0.377E+01    0.623E+00
DAV:   7    -0.165068274549E+02   -0.17455E+00   -0.90916E-01   149616   0.752E+00    0.389E+00
DAV:   8    -0.165384973760E+02   -0.31670E-01   -0.24972E-02   161592   0.150E+00    0.133E+00
DAV:   9    -0.165303503035E+02    0.81471E-02   -0.16203E-02   161808   0.803E-01    0.337E-01
DAV:  10    -0.165304298102E+02   -0.79507E-04   -0.27480E-03   151584   0.499E-01    0.473E-02
DAV:  11    -0.165304745265E+02   -0.44716E-04   -0.72248E-05   153648   0.681E-02    0.258E-02
DAV:  12    -0.165304739327E+02    0.59380E-06   -0.67289E-06   168768   0.198E-02    0.803E-03
DAV:  13    -0.165304736823E+02    0.25033E-06   -0.11137E-06   158568   0.768E-03    0.375E-03
DAV:  14    -0.165304738400E+02   -0.15767E-06   -0.49713E-07   158352   0.334E-03    0.742E-04
DAV:  15    -0.165304739022E+02   -0.62220E-07   -0.64391E-09    76536   0.837E-04
   1 F= -.16530474E+02 E0= -.16530482E+02  d E =0.229774E-04  mag=     4.2645
