       N       E                     dE             d eps       ncg     rms          rms(c)
DAV:   1     0.630146928400E+02    0.63015E+02   -0.22115E+04   148512   0.205E+03
DAV:   2    -0.135191620749E+02   -0.76534E+02   -0.75743E+02   153984   0.195E+02
DAV:   3    -0.139632576030E+02   -0.44410E+00   -0.44408E+00   165528   0.216E+01
DAV:   4    -0.139652532982E+02   -0.19957E-02   -0.19957E-02   200136   0.122E+00
DAV:   5    -0.139652634614E+02   -0.10163E-04   -0.10163E-04   166488   0.612E-02    0.319E+01
DAV:   6    -0.163426300464E+02   -0.23774E+01   -0.20038E+01   150600   0.378E+01    0.629E+00
DAV:   7    -0.165140192679E+02   -0.17139E+00   -0.96974E-01   149976   0.769E+00    0.392E+00
DAV:   8    -0.165442196116E+02   -0.30200E-01   -0.26385E-02   161520   0.150E+00    0.133E+00
DAV:   9    -0.165362791698E+02    0.79404E-02   -0.16972E-02   161424   0.813E-01    0.345E-01
DAV:  10    -0.165362581246E+02    0.21045E-04   -0.27917E-03   151464   0.512E-01    0.479E-02
DAV:  11    -0.165363042357E+02   -0.46111E-04   -0.79161E-05   153456   0.694E-02    0.261E-02
DAV:  12    -0.165363035422E+02    0.69348E-06   -0.73759E-06   168648   0.213E-02    0.878E-03
DAV:  13    -0.165363034305E+02    0.11165E-06   -0.11471E-06   158376   0.829E-03    0.406E-03
DAV:  14    -0.165363035799E+02   -0.14934E-06   -0.59538E-07   159048   0.363E-03    0.752E-04
DAV:  15    -0.165363036430E+02   -0.63080E-07   -0.70818E-09    76512   0.934E-04
   1 F= -.16536304E+02 E0= -.16536293E+02  d E =-.317931E-04  mag=     4.2918
