# Fe2

2 atoms
1 atom types

0.000000000000 2.858625780059 xlo xhi
0.000000000000 2.858625780059 ylo yhi
0.000000000000 2.837212908700 zlo zhi

Masses

1 55.84500000 # Fe

Atoms # atomic

1 1 0.000000000000 0.000000000000 0.000000000000   0.0 0.0 0.0 0.0
2 1 1.429312890029 1.429312890029 1.418606454350   0.0 0.0 0.0 0.0
