# Fe2

2 atoms
1 atom types

0.000000000000 2.847912591416 xlo xhi
0.000000000000 2.847912591416 ylo yhi
0.000000000000 2.858598935650 zlo zhi

Masses

1 55.84500000 # Fe

Atoms # atomic

1 1 0.000000000000 0.000000000000 0.000000000000   0.0 0.0 0.0 0.0
2 1 1.423956295708 1.423956295708 1.429299467825   0.0 0.0 0.0 0.0
