# Fe2

2 atoms
1 atom types

0.000000000000 2.853254101438 xlo xhi
0.000000000000 2.853254101438 ylo yhi
0.000000000000 2.847905922175 zlo zhi

Masses

1 55.84500000 # Fe

Atoms # atomic

1 1 0.000000000000 0.000000000000 0.000000000000   0.0 0.0 0.0 0.0
2 1 1.426627050719 1.426627050719 1.423952961088   0.0 0.0 0.0 0.0
