# Fe2

2 atoms
1 atom types

0.000000000000 2.851505873953 xlo xhi
0.000000000000 2.851470141634 ylo yhi
0.000000000000 2.851434764857 zlo zhi
0.014275172842 0.014275172842 0.014203886640 xy xz yz

Masses

1 55.84500000 # Fe

Atoms # atomic
  0.0 0.0 0.0 0.0
1 1 0.000000000000 0.000000000000 0.000000000000   0.0 0.0 0.0 0.0
2 1 1.440028109818 1.432837014137 1.425717382428   0.0 0.0 0.0 0.0
