# Fe2

2 atoms
1 atom types

0.000000000000 2.851021103660 xlo xhi
0.000000000000 2.851001020026 ylo yhi
0.000000000000 2.850981086455 zlo zhi
0.010701277016 0.010701277016 0.010661184990 xy xz yz

Masses

1 55.84500000 # Fe

Atoms # atomic
  0.0 0.0 0.0 0.0
1 1 0.000000000000 0.000000000000 0.000000000000   0.0 0.0 0.0 0.0
2 1 1.436211828847 1.430831102508 1.425490543227   0.0 0.0 0.0 0.0
