# Fe2

2 atoms
1 atom types

0.000000000000 2.851036678093 xlo xhi
0.000000000000 2.851000951653 ylo yhi
0.000000000000 2.850965580697 zlo zhi
0.014272823959 0.014272823959 0.014201549488 xy xz yz

Masses

1 55.84500000 # Fe

Atoms # atomic
  0.0 0.0 0.0 0.0
1 1 0.000000000000 0.000000000000 0.000000000000   0.0 0.0 0.0 0.0
2 1 1.439791163006 1.432601250570 1.425482790349   0.0 0.0 0.0 0.0
