# Fe2

2 atoms
1 atom types

0.000000000000 2.851472487248 xlo xhi
0.000000000000 2.851470258145 ylo yhi
0.000000000000 2.851468034608 zlo zhi
0.003565451680 0.003565451680 0.003560996260 xy xz yz

Masses

1 55.84500000 # Fe

Atoms # atomic
  0.0 0.0 0.0 0.0
1 1 0.000000000000 0.000000000000 0.000000000000   0.0 0.0 0.0 0.0
2 1 1.429301695304 1.427515627203 1.425734017304   0.0 0.0 0.0 0.0
