# Fe2

2 atoms
1 atom types

0.000000000000 2.854571517323 xlo xhi
0.000000000000 2.854571517323 ylo yhi
0.000000000000 2.843873567325 zlo zhi

Masses

1 55.84500000 # Fe

Atoms # atomic

1 1 0.000000000000 0.000000000000 0.000000000000   0.0 0.0 0.0 0.0
2 1 1.427285758661 1.427285758661 1.421936783663   0.0 0.0 0.0 0.0
