# Fe2

2 atoms
1 atom types

0.000000000000 2.851490322019 xlo xhi
0.000000000000 2.851470310265 ylo yhi
0.000000000000 2.851450147857 zlo zhi
-0.010682988822 -0.010682988822 -0.010723087446 xy xz yz

Masses

1 55.84500000 # Fe

Atoms # atomic
  0.0 0.0 0.0 0.0
1 1 0.000000000000 0.000000000000 0.000000000000   0.0 0.0 0.0 0.0
2 1 1.415062172188 1.420373611409 1.425725073929   0.0 0.0 0.0 0.0
