# Fe2

2 atoms
1 atom types

0.000000000000 2.845670430740 xlo xhi
0.000000000000 2.845670430740 ylo yhi
0.000000000000 2.861692324013 zlo zhi

Masses

1 55.84500000 # Fe

Atoms # atomic

1 1 0.000000000000 0.000000000000 0.000000000000   0.0 0.0 0.0 0.0
2 1 1.422835215370 1.422835215370 1.430846162006   0.0 0.0 0.0 0.0
