# Fe2

2 atoms
1 atom types

0.000000000000 2.858155412667 xlo xhi
0.000000000000 2.858155412667 ylo yhi
0.000000000000 2.836746064650 zlo zhi

Masses

1 55.84500000 # Fe

Atoms # atomic

1 1 0.000000000000 0.000000000000 0.000000000000   0.0 0.0 0.0 0.0
2 1 1.429077706333 1.429077706333 1.418373032325   0.0 0.0 0.0 0.0
