# Fe2

2 atoms
1 atom types

0.000000000000 2.851505933360 xlo xhi
0.000000000000 2.851470379257 ylo yhi
0.000000000000 2.851434467830 zlo zhi
-0.014239529761 -0.014239529761 -0.014310815958 xy xz yz

Masses

1 55.84500000 # Fe

Atoms # atomic
  0.0 0.0 0.0 0.0
1 1 0.000000000000 0.000000000000 0.000000000000   0.0 0.0 0.0 0.0
2 1 1.411513436920 1.418579781649 1.425717233915   0.0 0.0 0.0 0.0
