# Fe2

2 atoms
1 atom types

0.000000000000 2.851472488176 xlo xhi
0.000000000000 2.851470261858 ylo yhi
0.000000000000 2.851468029967 zlo zhi
-0.003563223970 -0.003563223970 -0.003567679390 xy xz yz

Masses

1 55.84500000 # Fe

Atoms # atomic
  0.0 0.0 0.0 0.0
1 1 0.000000000000 0.000000000000 0.000000000000   0.0 0.0 0.0 0.0
2 1 1.422173020118 1.423951291234 1.425734014984   0.0 0.0 0.0 0.0
