# Fe2

2 atoms
1 atom types

0.000000000000 2.851479167149 xlo xhi
0.000000000000 2.851470245176 ylo yhi
0.000000000000 2.851461367702 zlo zhi
0.007133131063 0.007133131063 0.007115309409 xy xz yz

Masses

1 55.84500000 # Fe

Atoms # atomic
  0.0 0.0 0.0 0.0
1 1 0.000000000000 0.000000000000 0.000000000000   0.0 0.0 0.0 0.0
2 1 1.432872714638 1.429292777293 1.425730683851   0.0 0.0 0.0 0.0
