# Fe2

2 atoms
1 atom types

0.000000000000 2.851490296957 xlo xhi
0.000000000000 2.851470210017 ylo yhi
0.000000000000 2.851450273166 zlo zhi
0.010703038128 0.010703038128 0.010662939504 xy xz yz

Masses

1 55.84500000 # Fe

Atoms # atomic
  0.0 0.0 0.0 0.0
1 1 0.000000000000 0.000000000000 0.000000000000   0.0 0.0 0.0 0.0
2 1 1.436448186607 1.431066574761 1.425725136583   0.0 0.0 0.0 0.0
