# Fe2

2 atoms
1 atom types

0.000000000000 2.851003297810 xlo xhi
0.000000000000 2.851001071858 ylo yhi
0.000000000000 2.850998840334 zlo zhi
-0.003562637666 -0.003562637666 -0.003567092353 xy xz yz

Masses

1 55.84500000 # Fe

Atoms # atomic
  0.0 0.0 0.0 0.0
1 1 0.000000000000 0.000000000000 0.000000000000   0.0 0.0 0.0 0.0
2 1 1.421939011239 1.423716989753 1.425499420167   0.0 0.0 0.0 0.0
