# Fe2

2 atoms
1 atom types

0.000000000000 2.851009983108 xlo xhi
0.000000000000 2.851001084877 ylo yhi
0.000000000000 2.850992142043 zlo zhi
-0.007123047995 -0.007123047995 -0.007140866717 xy xz yz

Masses

1 55.84500000 # Fe

Atoms # atomic
  0.0 0.0 0.0 0.0
1 1 0.000000000000 0.000000000000 0.000000000000   0.0 0.0 0.0 0.0
2 1 1.418381943559 1.421930109080 1.425496071022   0.0 0.0 0.0 0.0
