# Fe2

2 atoms
1 atom types

0.000000000000 2.849689760132 xlo xhi
0.000000000000 2.849689760132 ylo yhi
0.000000000000 2.855034597825 zlo zhi

Masses

1 55.84500000 # Fe

Atoms # atomic

1 1 0.000000000000 0.000000000000 0.000000000000   0.0 0.0 0.0 0.0
2 1 1.424844880066 1.424844880066 1.427517298913   0.0 0.0 0.0 0.0
