# Fe2

2 atoms
1 atom types

0.000000000000 2.851479174575 xlo xhi
0.000000000000 2.851470274879 ylo yhi
0.000000000000 2.851461330574 zlo zhi
-0.007124220237 -0.007124220237 -0.007142041891 xy xz yz

Masses

1 55.84500000 # Fe

Atoms # atomic
  0.0 0.0 0.0 0.0
1 1 0.000000000000 0.000000000000 0.000000000000   0.0 0.0 0.0 0.0
2 1 1.418615367050 1.422164116494 1.425730665287   0.0 0.0 0.0 0.0
