 CRYSTAL
 PRIMVEC
2.8251192 .0000000 .0000000
-.0169250 2.8250685 .0000000
-.0169250 -.0170267 2.8250172
 PRIMCOORD
           2  1
  26  .0000000 .0000000 .0000000
  26  1.3956346 1.4040209 1.4125086
 
