       N       E                     dE             d eps       ncg     rms          rms(c)
DAV:   1    -0.165261929321E+02   -0.16526E+02   -0.23440E-01898176   0.196E+01
DAV:   2    -0.165262184142E+02   -0.25482E-04   -0.25487E-04******   0.124E-01
DAV:   3    -0.165262184845E+02   -0.70359E-07   -0.71880E-07956616   0.699E-03
DAV:   4    -0.165262184860E+02   -0.14443E-08   -0.94620E-09******   0.701E-04
DAV:   5    -0.165262184865E+02   -0.47385E-09   -0.17479E-10766200   0.926E-05
   1 F= -.16526218E+02 E0= -.16526218E+02  d E =0.000000E+00  mag=     0.0000     0.0000     4.3287
