       N       E                     dE             d eps       ncg     rms          rms(c)
DAV:   1    -0.165257685723E+02   -0.16526E+02   -0.23428E-01897168   0.196E+01
DAV:   2    -0.165257942065E+02   -0.25634E-04   -0.25639E-04******   0.124E-01
DAV:   3    -0.165257942784E+02   -0.71923E-07   -0.72075E-07953112   0.706E-03
DAV:   4    -0.165257942799E+02   -0.14898E-08   -0.96129E-09******   0.710E-04
DAV:   5    -0.165257942804E+02   -0.56843E-09   -0.17875E-10759336   0.948E-05
   1 F= -.16525794E+02 E0= -.16525794E+02  d E =0.000000E+00  mag=     0.0000     0.0000     4.3304
