 CRYSTAL
 PRIMVEC
2.8589948 .0000000 .0000000
.0000000 2.8589948 .0000000
.0000000 .0000000 2.8589948
 PRIMCOORD
           2  1
  26  .0000000 .0000000 .0000000
  26  1.4294974 1.4294974 1.4294974
 
