       N       E                     dE             d eps       ncg     rms          rms(c)
DAV:   1    -0.165543656718E+02   -0.16554E+02   -0.23845E-01******   0.199E+01
DAV:   2    -0.165543943490E+02   -0.28677E-04   -0.28678E-04******   0.148E-01
DAV:   3    -0.165543944771E+02   -0.12806E-06   -0.12738E-06******   0.976E-03
DAV:   4    -0.165543944779E+02   -0.84583E-09   -0.23087E-08******   0.117E-03
DAV:   5    -0.165543944781E+02   -0.18190E-09   -0.57573E-10******   0.175E-04
   1 F= -.16554394E+02 E0= -.16554394E+02  d E =0.000000E+00  mag=     0.0000     0.0000     4.4016
