       N       E                     dE             d eps       ncg     rms          rms(c)
DAV:   1    -0.165533818826E+02   -0.16553E+02   -0.23803E-01******   0.199E+01
DAV:   2    -0.165534103039E+02   -0.28421E-04   -0.28421E-04******   0.148E-01
DAV:   3    -0.165534104294E+02   -0.12555E-06   -0.12482E-06******   0.968E-03
DAV:   4    -0.165534104308E+02   -0.13788E-08   -0.22472E-08******   0.115E-03
DAV:   5    -0.165534104308E+02   -0.16371E-10   -0.55847E-10******   0.173E-04
   1 F= -.16553410E+02 E0= -.16553410E+02  d E =0.000000E+00  mag=     0.0000     0.0000     4.3802
