       N       E                     dE             d eps       ncg     rms          rms(c)
DAV:   1    -0.165507733486E+02   -0.16551E+02   -0.23799E-01******   0.199E+01
DAV:   2    -0.165508020916E+02   -0.28743E-04   -0.28745E-04******   0.148E-01
DAV:   3    -0.165508022170E+02   -0.12543E-06   -0.12514E-06******   0.969E-03
DAV:   4    -0.165508022189E+02   -0.18063E-08   -0.22482E-08******   0.115E-03
DAV:   5    -0.165508022196E+02   -0.72396E-09   -0.55859E-10******   0.173E-04
   1 F= -.16550802E+02 E0= -.16550802E+02  d E =0.000000E+00  mag=     0.0000     0.0000     4.3846
