       N       E                     dE             d eps       ncg     rms          rms(c)
DAV:   1    -0.165524054498E+02   -0.16552E+02   -0.23800E-01******   0.199E+01
DAV:   2    -0.165524340945E+02   -0.28645E-04   -0.28646E-04******   0.148E-01
DAV:   3    -0.165524342197E+02   -0.12512E-06   -0.12506E-06******   0.969E-03
DAV:   4    -0.165524342219E+02   -0.22901E-08   -0.22476E-08******   0.115E-03
DAV:   5    -0.165524342217E+02    0.29468E-09   -0.55875E-10******   0.173E-04
   1 F= -.16552434E+02 E0= -.16552434E+02  d E =0.000000E+00  mag=     0.0000     0.0000     4.3819
