       N       E                     dE             d eps       ncg     rms          rms(c)
DAV:   1    -0.165537117879E+02   -0.16554E+02   -0.23802E-01******   0.199E+01
DAV:   2    -0.165537403542E+02   -0.28566E-04   -0.28566E-04******   0.148E-01
DAV:   3    -0.165537404785E+02   -0.12432E-06   -0.12516E-06******   0.970E-03
DAV:   4    -0.165537404817E+02   -0.32296E-08   -0.22504E-08******   0.115E-03
DAV:   5    -0.165537404811E+02    0.59208E-09   -0.55925E-10******   0.173E-04
   1 F= -.16553740E+02 E0= -.16553740E+02  d E =0.000000E+00  mag=     0.0000     0.0000     4.3797
