       N       E                     dE             d eps       ncg     rms          rms(c)
DAV:   1    -0.165493488277E+02   -0.16549E+02   -0.23739E-01******   0.199E+01
DAV:   2    -0.165493766911E+02   -0.27863E-04   -0.27865E-04******   0.147E-01
DAV:   3    -0.165493768127E+02   -0.12164E-06   -0.12132E-06******   0.954E-03
DAV:   4    -0.165493768162E+02   -0.34652E-08   -0.21442E-08******   0.112E-03
DAV:   5    -0.165493768159E+02    0.23465E-09   -0.52437E-10******   0.167E-04
   1 F= -.16549377E+02 E0= -.16549377E+02  d E =0.000000E+00  mag=     0.0000     0.0000     4.3507
