       N       E                     dE             d eps       ncg     rms          rms(c)
DAV:   1    -0.165540703174E+02   -0.16554E+02   -0.23865E-01******   0.199E+01
DAV:   2    -0.165540988969E+02   -0.28580E-04   -0.28581E-04******   0.149E-01
DAV:   3    -0.165540990254E+02   -0.12852E-06   -0.12846E-06******   0.980E-03
DAV:   4    -0.165540990282E+02   -0.28049E-08   -0.23434E-08******   0.118E-03
DAV:   5    -0.165540990281E+02    0.12642E-09   -0.58766E-10******   0.177E-04
   1 F= -.16554099E+02 E0= -.16554099E+02  d E =0.000000E+00  mag=     0.0000     0.0000     4.4125
