       N       E                     dE             d eps       ncg     rms          rms(c)
DAV:   1    -0.165507594254E+02   -0.16551E+02   -0.23797E-01******   0.199E+01
DAV:   2    -0.165507878021E+02   -0.28377E-04   -0.28378E-04******   0.147E-01
DAV:   3    -0.165507879254E+02   -0.12336E-06   -0.12479E-06******   0.967E-03
DAV:   4    -0.165507879294E+02   -0.39736E-08   -0.22515E-08******   0.115E-03
DAV:   5    -0.165507879280E+02    0.13933E-08   -0.56082E-10******   0.173E-04
DAV:   6    -0.165507879296E+02   -0.15334E-08   -0.14693E-11******   0.325E-05
DAV:   7    -0.165507879285E+02    0.10632E-08   -0.13259E-12******   0.160E-05
DAV:   8    -0.165507879279E+02    0.59481E-09    0.90366E-13******   0.867E-06
   1 F= -.16550788E+02 E0= -.16550788E+02  d E =0.000000E+00  mag=     0.0000     0.0000     4.3846
