       N       E                     dE             d eps       ncg     rms          rms(c)
DAV:   1    -0.165527153732E+02   -0.16553E+02   -0.23784E-01******   0.199E+01
DAV:   2    -0.165527438082E+02   -0.28435E-04   -0.28436E-04******   0.148E-01
DAV:   3    -0.165527439331E+02   -0.12490E-06   -0.12396E-06******   0.965E-03
DAV:   4    -0.165527439340E+02   -0.84583E-09   -0.22203E-08******   0.115E-03
DAV:   5    -0.165527439341E+02   -0.72760E-10   -0.54973E-10******   0.172E-04
   1 F= -.16552744E+02 E0= -.16552744E+02  d E =0.000000E+00  mag=     0.0000     0.0000     4.3698
