       N       E                     dE             d eps       ncg     rms          rms(c)
DAV:   1    -0.165524054458E+02   -0.16552E+02   -0.23800E-01******   0.199E+01
DAV:   2    -0.165524340986E+02   -0.28653E-04   -0.28653E-04******   0.148E-01
DAV:   3    -0.165524342244E+02   -0.12579E-06   -0.12507E-06******   0.969E-03
DAV:   4    -0.165524342257E+02   -0.13670E-08   -0.22477E-08******   0.115E-03
DAV:   5    -0.165524342263E+02   -0.51932E-09   -0.55878E-10******   0.173E-04
   1 F= -.16552434E+02 E0= -.16552434E+02  d E =0.000000E+00  mag=     0.0000     0.0000     4.3819
