       N       E                     dE             d eps       ncg     rms          rms(c)
DAV:   1    -0.165537121128E+02   -0.16554E+02   -0.23802E-01******   0.199E+01
DAV:   2    -0.165537406798E+02   -0.28567E-04   -0.28568E-04******   0.148E-01
DAV:   3    -0.165537408058E+02   -0.12591E-06   -0.12514E-06******   0.970E-03
DAV:   4    -0.165537408070E+02   -0.12924E-08   -0.22498E-08******   0.115E-03
DAV:   5    -0.165537408084E+02   -0.13733E-08   -0.55910E-10******   0.173E-04
DAV:   6    -0.165537408075E+02    0.93860E-09   -0.14881E-11******   0.324E-05
   1 F= -.16553741E+02 E0= -.16553741E+02  d E =0.000000E+00  mag=     0.0000     0.0000     4.3797
