       N       E                     dE             d eps       ncg     rms          rms(c)
DAV:   1    -0.165512700807E+02   -0.16551E+02   -0.23762E-01******   0.199E+01
DAV:   2    -0.165512982391E+02   -0.28158E-04   -0.28158E-04******   0.147E-01
DAV:   3    -0.165512983604E+02   -0.12130E-06   -0.12260E-06******   0.958E-03
DAV:   4    -0.165512983625E+02   -0.20937E-08   -0.21771E-08******   0.113E-03
DAV:   5    -0.165512983636E+02   -0.11441E-08   -0.53451E-10******   0.169E-04
DAV:   6    -0.165512983632E+02    0.40927E-09   -0.14785E-11******   0.322E-05
   1 F= -.16551298E+02 E0= -.16551298E+02  d E =0.000000E+00  mag=     0.0000     0.0000     4.3604
