       N       E                     dE             d eps       ncg     rms          rms(c)
DAV:   1    -0.165512724468E+02   -0.16551E+02   -0.23766E-01******   0.199E+01
DAV:   2    -0.165513007559E+02   -0.28309E-04   -0.28308E-04******   0.147E-01
DAV:   3    -0.165513008796E+02   -0.12367E-06   -0.12274E-06******   0.961E-03
DAV:   4    -0.165513008817E+02   -0.20937E-08   -0.21885E-08******   0.114E-03
DAV:   5    -0.165513008813E+02    0.41200E-09   -0.54017E-10******   0.170E-04
   1 F= -.16551301E+02 E0= -.16551301E+02  d E =0.000000E+00  mag=     0.0000     0.0000     4.3604
