 CRYSTAL
 PRIMVEC
2.7565682 .0000000 .0000000
.0000000 2.7900488 .0000000
.0000000 .0000000 2.7900488
 PRIMCOORD
           2  1
  26  .0000000 .0000000 .0000000
  26  1.3782841 1.3950244 1.3950244
 
