 # 229 Fe_pv
 
           2  atoms
           1  atom types
 
      0.000000000000       2.8664962944  xlo xhi
      0.000000000000       2.8664962944  ylo yhi
      0.000000000000       2.8664962944  zlo zhi
 
Masses
 
            1   55.84500000             # Fe
 
Atoms # atomic
 
         1    1        0.000000000000       0.000000000000       0.000000000000
         2    1        1.4332481472        1.4332481472        1.4332481472
