 CRYSTAL
 PRIMVEC
2.7902497 .0000000 .0000000
.0669564 2.7894462 .0000000
.0000000 .0000000 2.7900488
 PRIMCOORD
           2  1
  26  .0000000 .0000000 .0000000
  26  1.4286030 1.3947231 1.3950244
 
