
     Program PWSCF v.7.1 starts on 14Nov2022 at 12:19:14 

     This program is part of the open-source Quantum ESPRESSO suite
     for quantum simulation of materials; please cite
         "P. Giannozzi et al., J. Phys.:Condens. Matter 21 395502 (2009);
         "P. Giannozzi et al., J. Phys.:Condens. Matter 29 465901 (2017);
         "P. Giannozzi et al., J. Chem. Phys. 152 154105 (2020);
          URL http://www.quantum-espresso.org", 
     in publications or presentations arising from this work. More details at
     http://www.quantum-espresso.org/quote

     Parallel version (MPI & OpenMP), running on      36 processor cores
     Number of MPI processes:                36
     Threads/MPI process:                     1

     MPI processes distributed on     1 nodes
     178819 MiB available memory on the printing compute node when the environment starts
 
     Waiting for input...
     Reading input from standard input
Warning: card &CELL ignored
Warning: card / ignored

     Current dimensions of program PWSCF are:
     Max number of different atomic species (ntypx) = 10
     Max number of k-points (npk) =  40000
     Max angular momentum in pseudopotentials (lmaxx) =  4
     file Fe.pbesol-spn-kjpaw_psl.1.0.0.UPF: wavefunction(s)  3P 3D renormalized
     Found identity + (  0.5000  0.5000 -0.5000) symmetry
     This is a supercell, fractional translations are disabled
     Message from routine setup:
     using ibrav=0 with symmetry is DISCOURAGED, use correct ibrav instead
 
     K-points division:     npool     =       3
     R & G space division:  proc/nbgrp/npool/nimage =      12
     Subspace diagonalization in iterative solution of the eigenvalue problem:
     a serial algorithm will be used

 
     Parallelization info
     --------------------
     sticks:   dense  smooth     PW     G-vecs:    dense   smooth      PW
     Min          86      42     14                 2100      742     135
     Max          87      43     15                 2103      747     136
     Sum        1033     509    169                25221     8933    1631
 
     Using Slab Decomposition
 

     Title: 
     #                                                                          


     bravais-lattice index     =            0
     lattice parameter (alat)  =       5.1933  a.u.
     unit-cell volume          =     142.2016 (a.u.)^3
     number of atoms/cell      =            2
     number of atomic types    =            1
     number of electrons       =        32.00
     number of Kohn-Sham states=           20
     kinetic-energy cutoff     =      60.0000  Ry
     charge density cutoff     =     480.0000  Ry
     scf convergence threshold =      1.0E-06
     mixing beta               =       0.7000
     number of iterations used =            8  plain     mixing
     Exchange-correlation= SLA  PW   PSX  PSC
                           (   1   4  10   8   0   0   0)

     celldm(1)=   5.193342  celldm(2)=   0.000000  celldm(3)=   0.000000
     celldm(4)=   0.000000  celldm(5)=   0.000000  celldm(6)=   0.000000

     crystal axes: (cart. coord. in units of alat)
               a(1) = (   1.000000   0.000000   0.000000 )  
               a(2) = (   0.000000   1.000000   0.000000 )  
               a(3) = (   0.000000   0.000000   1.015228 )  

     reciprocal axes: (cart. coord. in units 2 pi/alat)
               b(1) = (  1.000000  0.000000  0.000000 )  
               b(2) = (  0.000000  1.000000  0.000000 )  
               b(3) = (  0.000000  0.000000  0.985000 )  


     PseudoPot. # 1 for Fe read from file:
     /home/nie0061/qe/pseudo/Fe.pbesol-spn-kjpaw_psl.1.0.0.UPF
     MD5 check sum: e30d5f36a6f0cb983ee41abee56170da
     Pseudo is Projector augmented-wave + core cor, Zval = 16.0
     Generated using &quot;atomic&quot; code by A. Dal Corso  v.6.3
     Shape of augmentation charge: PSQ
     Using radial grid of 1191 points,  6 beta functions with: 
                l(1) =   0
                l(2) =   0
                l(3) =   1
                l(4) =   1
                l(5) =   2
                l(6) =   2
     Q(r) pseudized with 0 coefficients 


     atomic species   valence    mass     pseudopotential
        Fe            16.00    55.84500     Fe( 1.00)

     Starting magnetic structure 
     atomic species   magnetization
        Fe           0.700

     16 Sym. Ops., with inversion, found



   Cartesian axes

     site n.     atom                  positions (alat units)
         1           Fe  tau(   1) = (   0.0000000   0.0000000   0.0000000  )
         2           Fe  tau(   2) = (   0.5000000   0.5000000   0.5076142  )

     number of k points=   126  Gaussian smearing, width (Ry)=  0.0200

     Number of k-points >= 100: set verbosity='high' to print them.

     Dense  grid:    25221 G-vectors     FFT dimensions: (  40,  40,  40)

     Smooth grid:     8933 G-vectors     FFT dimensions: (  25,  25,  25)

     Estimated max dynamical RAM per process >       8.47 MB

     Estimated total dynamical RAM >     280.34 MB

     Check: negative core charge=   -0.000003
     Generating pointlists ...
     new r_m :   0.3591 (alat units)  1.8647 (a.u.) for type    1

     Initial potential from superposition of free atoms

     starting charge      31.9992, renormalised to      32.0000
     Starting wfcs are   20 randomized atomic wfcs
     Checking if some PAW data can be deallocated... 

     total cpu time spent up to now is        0.4 secs

     Self-consistent Calculation

     iteration #  1     ecut=    60.00 Ry     beta= 0.70
     Davidson diagonalization with overlap
     ethr =  1.00E-02,  avg # of iterations =  3.6

     negative rho (up, down):  0.000E+00 5.573E-04

     total cpu time spent up to now is        1.2 secs

     total energy              =    -653.25994909 Ry
     estimated scf accuracy    <       3.09636780 Ry

     total magnetization       =     7.43 Bohr mag/cell
     absolute magnetization    =     7.50 Bohr mag/cell

     iteration #  2     ecut=    60.00 Ry     beta= 0.70
     Davidson diagonalization with overlap
     ethr =  9.68E-03,  avg # of iterations =  1.0

     negative rho (up, down):  0.000E+00 4.215E-04

     total cpu time spent up to now is        1.6 secs

     total energy              =    -653.67560558 Ry
     estimated scf accuracy    <       0.56872496 Ry

     total magnetization       =     5.91 Bohr mag/cell
     absolute magnetization    =     6.22 Bohr mag/cell

     iteration #  3     ecut=    60.00 Ry     beta= 0.70
     Davidson diagonalization with overlap
     ethr =  1.78E-03,  avg # of iterations =  2.8

     negative rho (up, down):  0.000E+00 4.870E-04

     total cpu time spent up to now is        2.4 secs

     total energy              =    -653.71907877 Ry
     estimated scf accuracy    <       0.55323689 Ry

     total magnetization       =     4.46 Bohr mag/cell
     absolute magnetization    =     4.73 Bohr mag/cell

     iteration #  4     ecut=    60.00 Ry     beta= 0.70
     Davidson diagonalization with overlap
     ethr =  1.73E-03,  avg # of iterations =  2.2

     negative rho (up, down):  0.000E+00 3.916E-04

     total cpu time spent up to now is        3.0 secs

     total energy              =    -653.79932778 Ry
     estimated scf accuracy    <       0.01360464 Ry

     total magnetization       =     4.34 Bohr mag/cell
     absolute magnetization    =     4.61 Bohr mag/cell

     iteration #  5     ecut=    60.00 Ry     beta= 0.70
     Davidson diagonalization with overlap
     ethr =  4.25E-05,  avg # of iterations =  4.0

     negative rho (up, down):  0.000E+00 2.524E-04

     total cpu time spent up to now is        3.8 secs

     total energy              =    -653.79141346 Ry
     estimated scf accuracy    <       0.43781145 Ry

     total magnetization       =     4.15 Bohr mag/cell
     absolute magnetization    =     4.37 Bohr mag/cell

     iteration #  6     ecut=    60.00 Ry     beta= 0.70
     Davidson diagonalization with overlap
     ethr =  4.25E-05,  avg # of iterations =  2.9

     negative rho (up, down):  0.000E+00 1.377E-04

     total cpu time spent up to now is        4.4 secs

     total energy              =    -653.80907731 Ry
     estimated scf accuracy    <       0.00676459 Ry

     total magnetization       =     4.15 Bohr mag/cell
     absolute magnetization    =     4.35 Bohr mag/cell

     iteration #  7     ecut=    60.00 Ry     beta= 0.70
     Davidson diagonalization with overlap
     ethr =  2.11E-05,  avg # of iterations =  2.8

     negative rho (up, down):  0.000E+00 1.348E-04

     total cpu time spent up to now is        5.1 secs

     total energy              =    -653.81136804 Ry
     estimated scf accuracy    <       0.00176668 Ry

     total magnetization       =     4.06 Bohr mag/cell
     absolute magnetization    =     4.22 Bohr mag/cell

     iteration #  8     ecut=    60.00 Ry     beta= 0.70
     Davidson diagonalization with overlap
     ethr =  5.52E-06,  avg # of iterations =  1.8

     negative rho (up, down):  0.000E+00 1.305E-04

     total cpu time spent up to now is        5.6 secs

     total energy              =    -653.81156798 Ry
     estimated scf accuracy    <       0.00006977 Ry

     total magnetization       =     4.08 Bohr mag/cell
     absolute magnetization    =     4.24 Bohr mag/cell

     iteration #  9     ecut=    60.00 Ry     beta= 0.70
     Davidson diagonalization with overlap
     ethr =  2.18E-07,  avg # of iterations =  3.1

     negative rho (up, down):  0.000E+00 1.336E-04
 
     Magnetic moment per site  (integrated on atomic sphere of radius R)
     atom   1 (R=0.359)  charge= 14.3270  magn=  2.0643
     atom   2 (R=0.359)  charge= 14.3261  magn=  2.0620

     total cpu time spent up to now is        6.3 secs

     End of self-consistent calculation

     Number of k-points >= 100: set verbosity='high' to print the bands.

     the Fermi energy is    19.9702 ev

!    total energy              =    -653.81158778 Ry
     total all-electron energy =     -5086.463006 Ry
     estimated scf accuracy    <       0.00000069 Ry
     smearing contrib. (-TS)   =      -0.00472052 Ry
     internal energy E=F+TS    =    -653.80686726 Ry

     The total energy is F=E-TS. E is the sum of the following terms:
     one-electron contribution =    -204.98697168 Ry
     hartree contribution      =     124.55386216 Ry
     xc contribution           =     -54.95377477 Ry
     ewald contribution        =    -356.97958448 Ry
     one-center paw contrib.   =    -161.44039849 Ry

     total magnetization       =     4.08 Bohr mag/cell
     absolute magnetization    =     4.24 Bohr mag/cell

     convergence has been achieved in   9 iterations

     Writing all to output data dir ./pwscf.save/
 
     init_run     :      0.29s CPU      0.34s WALL (       1 calls)
     electrons    :      5.59s CPU      5.83s WALL (       1 calls)

     Called by init_run:
     wfcinit      :      0.12s CPU      0.13s WALL (       1 calls)
     potinit      :      0.09s CPU      0.12s WALL (       1 calls)
     hinit0       :      0.06s CPU      0.06s WALL (       1 calls)

     Called by electrons:
     c_bands      :      4.20s CPU      4.39s WALL (       9 calls)
     sum_band     :      0.56s CPU      0.60s WALL (       9 calls)
     v_of_rho     :      0.06s CPU      0.06s WALL (      10 calls)
     newd         :      0.02s CPU      0.03s WALL (      10 calls)
     PAW_pot      :      0.81s CPU      0.84s WALL (      10 calls)
     mix_rho      :      0.01s CPU      0.01s WALL (       9 calls)

     Called by c_bands:
     init_us_2    :      0.04s CPU      0.05s WALL (    1596 calls)
     init_us_2:cp :      0.04s CPU      0.04s WALL (    1596 calls)
     cegterg      :      3.56s CPU      3.73s WALL (     756 calls)

     Called by *egterg:
     cdiaghg      :      1.10s CPU      1.15s WALL (    2788 calls)
     h_psi        :      2.22s CPU      2.33s WALL (    2872 calls)
     s_psi        :      0.04s CPU      0.04s WALL (    2872 calls)
     g_psi        :      0.01s CPU      0.01s WALL (    2032 calls)

     Called by h_psi:
     h_psi:calbec :      0.08s CPU      0.08s WALL (    2872 calls)
     vloc_psi     :      2.08s CPU      2.19s WALL (    2872 calls)
     add_vuspsi   :      0.04s CPU      0.04s WALL (    2872 calls)

     General routines
     calbec       :      0.10s CPU      0.10s WALL (    3628 calls)
     fft          :      0.02s CPU      0.02s WALL (     244 calls)
     ffts         :      0.00s CPU      0.00s WALL (      38 calls)
     fftw         :      2.21s CPU      2.34s WALL (   93788 calls)
     interpolate  :      0.00s CPU      0.00s WALL (      20 calls)
 
     Parallel routines
 
     PWSCF        :      6.05s CPU      6.56s WALL

 
   This run was terminated on:  12:19:21  14Nov2022            

=------------------------------------------------------------------------------=
   JOB DONE.
=------------------------------------------------------------------------------=
