       N       E                     dE             d eps       ncg     rms          rms(c)
DAV:   1    -0.140671736262E+02   -0.14067E+02   -0.28089E-01******   0.244E+01
DAV:   2    -0.140671977820E+02   -0.24156E-04   -0.24157E-04******   0.127E-01
DAV:   3    -0.140671978482E+02   -0.66151E-07   -0.66004E-07******   0.682E-03
DAV:   4    -0.140671978495E+02   -0.13215E-08   -0.88641E-09******   0.673E-04
DAV:   5    -0.140671978495E+02    0.62755E-10   -0.16389E-10******   0.925E-05
   1 F= -.14067198E+02 E0= -.14067234E+02  d E =0.108529E-03  mag=     0.0000     0.0000     3.1933
