       N       E                     dE             d eps       ncg     rms          rms(c)
DAV:   1    -0.140668713300E+02   -0.14067E+02   -0.28074E-01******   0.244E+01
DAV:   2    -0.140668954290E+02   -0.24099E-04   -0.24099E-04******   0.127E-01
DAV:   3    -0.140668954939E+02   -0.64872E-07   -0.66008E-07******   0.683E-03
DAV:   4    -0.140668954963E+02   -0.23729E-08   -0.88657E-09******   0.673E-04
DAV:   5    -0.140668954952E+02    0.10532E-08   -0.16407E-10******   0.925E-05
DAV:   6    -0.140668954948E+02    0.37835E-09   -0.18529E-11******   0.341E-05
   1 F= -.14066895E+02 E0= -.14066931E+02  d E =0.107759E-03  mag=     0.0000     0.0000     3.1935
