       N       E                     dE             d eps       ncg     rms          rms(c)
DAV:   1    -0.140668712078E+02   -0.14067E+02   -0.28074E-01******   0.244E+01
DAV:   2    -0.140668952987E+02   -0.24091E-04   -0.24091E-04******   0.127E-01
DAV:   3    -0.140668953647E+02   -0.66005E-07   -0.65993E-07******   0.682E-03
DAV:   4    -0.140668953669E+02   -0.21701E-08   -0.88644E-09******   0.673E-04
DAV:   5    -0.140668953667E+02    0.18917E-09   -0.16415E-10******   0.925E-05
   1 F= -.14066895E+02 E0= -.14066931E+02  d E =0.107764E-03  mag=     0.0000     0.0000     3.1935
