       N       E                     dE             d eps       ncg     rms          rms(c)
DAV:   1    -0.140673586544E+02   -0.14067E+02   -0.28043E-01******   0.244E+01
DAV:   2    -0.140673830475E+02   -0.24393E-04   -0.24392E-04******   0.127E-01
DAV:   3    -0.140673831134E+02   -0.65837E-07   -0.67108E-07******   0.688E-03
DAV:   4    -0.140673831147E+02   -0.12969E-08   -0.90507E-09******   0.679E-04
DAV:   5    -0.140673831150E+02   -0.32651E-09   -0.16719E-10******   0.936E-05
   1 F= -.14067383E+02 E0= -.14067420E+02  d E =0.110455E-03  mag=     0.0000     0.0000     3.1933
