       N       E                     dE             d eps       ncg     rms          rms(c)
DAV:   1    -0.140668391839E+02   -0.14067E+02   -0.28048E-01******   0.244E+01
DAV:   2    -0.140668635620E+02   -0.24378E-04   -0.24378E-04******   0.127E-01
DAV:   3    -0.140668636292E+02   -0.67220E-07   -0.67136E-07******   0.688E-03
DAV:   4    -0.140668636309E+02   -0.16944E-08   -0.90536E-09******   0.679E-04
DAV:   5    -0.140668636301E+02    0.87221E-09   -0.16661E-10******   0.936E-05
   1 F= -.14066864E+02 E0= -.14066897E+02  d E =0.101049E-03  mag=     0.0000     0.0000     3.1924
