       N       E                     dE             d eps       ncg     rms          rms(c)
DAV:   1    -0.140662888922E+02   -0.14066E+02   -0.28037E-01******   0.244E+01
DAV:   2    -0.140663131819E+02   -0.24290E-04   -0.24290E-04******   0.126E-01
DAV:   3    -0.140663132479E+02   -0.66020E-07   -0.66408E-07******   0.686E-03
DAV:   4    -0.140663132493E+02   -0.14061E-08   -0.88902E-09******   0.674E-04
DAV:   5    -0.140663132498E+02   -0.48294E-09   -0.16331E-10******   0.928E-05
   1 F= -.14066313E+02 E0= -.14066350E+02  d E =0.108762E-03  mag=     0.0000     0.0000     3.1997
