       N       E                     dE             d eps       ncg     rms          rms(c)
DAV:   1    -0.140658546539E+02   -0.14066E+02   -0.28084E-01******   0.244E+01
DAV:   2    -0.140658786038E+02   -0.23950E-04   -0.23949E-04******   0.127E-01
DAV:   3    -0.140658786688E+02   -0.64947E-07   -0.66294E-07******   0.685E-03
DAV:   4    -0.140658786704E+02   -0.15907E-08   -0.89280E-09******   0.676E-04
DAV:   5    -0.140658786709E+02   -0.57571E-09   -0.16564E-10******   0.930E-05
   1 F= -.14065879E+02 E0= -.14065903E+02  d E =0.739296E-04  mag=     0.0000     0.0000     3.1925
