       N       E                     dE             d eps       ncg     rms          rms(c)
DAV:   1    -0.140664285685E+02   -0.14066E+02   -0.28032E-01******   0.244E+01
DAV:   2    -0.140664526455E+02   -0.24077E-04   -0.24078E-04******   0.127E-01
DAV:   3    -0.140664527117E+02   -0.66223E-07   -0.66541E-07******   0.687E-03
DAV:   4    -0.140664527136E+02   -0.18736E-08   -0.89305E-09******   0.676E-04
DAV:   5    -0.140664527139E+02   -0.32560E-09   -0.16343E-10******   0.930E-05
   1 F= -.14066453E+02 E0= -.14066483E+02  d E =0.905541E-04  mag=     0.0000     0.0000     3.1973
