       N       E                     dE             d eps       ncg     rms          rms(c)
DAV:   1    -0.140649887454E+02   -0.14065E+02   -0.28035E-01******   0.244E+01
DAV:   2    -0.140650126634E+02   -0.23918E-04   -0.23918E-04******   0.126E-01
DAV:   3    -0.140650127296E+02   -0.66145E-07   -0.66057E-07******   0.685E-03
DAV:   4    -0.140650127313E+02   -0.17171E-08   -0.88447E-09******   0.673E-04
DAV:   5    -0.140650127307E+02    0.56752E-09   -0.16181E-10******   0.926E-05
   1 F= -.14065013E+02 E0= -.14065048E+02  d E =0.104688E-03  mag=     0.0000     0.0000     3.2036
