 CRYSTAL
 PRIMVEC
2.8251192 .0000000 .0000000
.0169758 2.8250682 .0000000
.0169758 .0168741 2.8250178
 PRIMCOORD
           2  1
  26  .0000000 .0000000 .0000000
  26  1.4295355 1.4209712 1.4125089
 
