 CRYSTAL
 PRIMVEC
2.8253226 .0000000 .0000000
-.0506188 2.8248692 .0000000
-.0506188 -.0515339 2.8243991
 PRIMCOORD
           2  1
  26  .0000000 .0000000 .0000000
  26  1.3620426 1.3866676 1.4121995
 
