
     Program PWSCF v.7.1 starts on 14Nov2022 at 12:18:50 

     This program is part of the open-source Quantum ESPRESSO suite
     for quantum simulation of materials; please cite
         "P. Giannozzi et al., J. Phys.:Condens. Matter 21 395502 (2009);
         "P. Giannozzi et al., J. Phys.:Condens. Matter 29 465901 (2017);
         "P. Giannozzi et al., J. Chem. Phys. 152 154105 (2020);
          URL http://www.quantum-espresso.org", 
     in publications or presentations arising from this work. More details at
     http://www.quantum-espresso.org/quote

     Parallel version (MPI & OpenMP), running on      36 processor cores
     Number of MPI processes:                36
     Threads/MPI process:                     1

     MPI processes distributed on     1 nodes
     179136 MiB available memory on the printing compute node when the environment starts
 
     Waiting for input...
     Reading input from standard input
Warning: card &CELL ignored
Warning: card / ignored

     Current dimensions of program PWSCF are:
     Max number of different atomic species (ntypx) = 10
     Max number of k-points (npk) =  40000
     Max angular momentum in pseudopotentials (lmaxx) =  4
     file Fe.pbesol-spn-kjpaw_psl.1.0.0.UPF: wavefunction(s)  3P 3D renormalized
     Found identity + (  0.5000 -0.5000  0.5000) symmetry
     This is a supercell, fractional translations are disabled
     Message from routine setup:
     using ibrav=0 with symmetry is DISCOURAGED, use correct ibrav instead
 
     K-points division:     npool     =       3
     R & G space division:  proc/nbgrp/npool/nimage =      12
     Subspace diagonalization in iterative solution of the eigenvalue problem:
     a serial algorithm will be used

 
     Parallelization info
     --------------------
     sticks:   dense  smooth     PW     G-vecs:    dense   smooth      PW
     Min          88      43     14                 2169      763     139
     Max          89      44     15                 2173      765     142
     Sum        1067     525    177                26055     9171    1689
 
     Using Slab Decomposition
 

     Title: 
     #                                                                          


     bravais-lattice index     =            0
     lattice parameter (alat)  =       5.2727  a.u.
     unit-cell volume          =     146.5410 (a.u.)^3
     number of atoms/cell      =            2
     number of atomic types    =            1
     number of electrons       =        32.00
     number of Kohn-Sham states=           20
     kinetic-energy cutoff     =      60.0000  Ry
     charge density cutoff     =     480.0000  Ry
     scf convergence threshold =      1.0E-06
     mixing beta               =       0.7000
     number of iterations used =            8  plain     mixing
     Exchange-correlation= SLA  PW   PSX  PSC
                           (   1   4  10   8   0   0   0)

     celldm(1)=   5.272725  celldm(2)=   0.000000  celldm(3)=   0.000000
     celldm(4)=   0.000000  celldm(5)=   0.000000  celldm(6)=   0.000000

     crystal axes: (cart. coord. in units of alat)
               a(1) = (   0.999944   0.007500   0.007500 )  
               a(2) = (   0.007500   0.999944   0.007500 )  
               a(3) = (   0.007500   0.007500   0.999944 )  

     reciprocal axes: (cart. coord. in units 2 pi/alat)
               b(1) = (  1.000168 -0.007445 -0.007445 )  
               b(2) = ( -0.007445  1.000168 -0.007445 )  
               b(3) = ( -0.007445 -0.007445  1.000168 )  


     PseudoPot. # 1 for Fe read from file:
     /home/nie0061/qe/pseudo/Fe.pbesol-spn-kjpaw_psl.1.0.0.UPF
     MD5 check sum: e30d5f36a6f0cb983ee41abee56170da
     Pseudo is Projector augmented-wave + core cor, Zval = 16.0
     Generated using &quot;atomic&quot; code by A. Dal Corso  v.6.3
     Shape of augmentation charge: PSQ
     Using radial grid of 1191 points,  6 beta functions with: 
                l(1) =   0
                l(2) =   0
                l(3) =   1
                l(4) =   1
                l(5) =   2
                l(6) =   2
     Q(r) pseudized with 0 coefficients 


     atomic species   valence    mass     pseudopotential
        Fe            16.00    55.84500     Fe( 1.00)

     Starting magnetic structure 
     atomic species   magnetization
        Fe           0.700

     12 Sym. Ops., with inversion, found



   Cartesian axes

     site n.     atom                  positions (alat units)
         1           Fe  tau(   1) = (   0.0000000   0.0000000   0.0000000  )
         2           Fe  tau(   2) = (   0.5074715   0.5074715   0.5074715  )

     number of k points=   116  Gaussian smearing, width (Ry)=  0.0200

     Number of k-points >= 100: set verbosity='high' to print them.

     Dense  grid:    26055 G-vectors     FFT dimensions: (  40,  40,  40)

     Smooth grid:     9171 G-vectors     FFT dimensions: (  25,  25,  25)

     Estimated max dynamical RAM per process >       8.47 MB

     Estimated total dynamical RAM >     279.52 MB

     Check: negative core charge=   -0.000003
     Generating pointlists ...
     new r_m :   0.3554 (alat units)  1.8741 (a.u.) for type    1

     Initial potential from superposition of free atoms

     starting charge      31.9992, renormalised to      32.0000
     Starting wfcs are   20 randomized atomic wfcs
     Checking if some PAW data can be deallocated... 

     total cpu time spent up to now is        0.4 secs

     Self-consistent Calculation

     iteration #  1     ecut=    60.00 Ry     beta= 0.70
     Davidson diagonalization with overlap
     ethr =  1.00E-02,  avg # of iterations =  3.6

     negative rho (up, down):  0.000E+00 5.723E-04

     total cpu time spent up to now is        1.1 secs

     total energy              =    -653.27674635 Ry
     estimated scf accuracy    <       3.07993060 Ry

     total magnetization       =     7.43 Bohr mag/cell
     absolute magnetization    =     7.52 Bohr mag/cell

     iteration #  2     ecut=    60.00 Ry     beta= 0.70
     Davidson diagonalization with overlap
     ethr =  9.62E-03,  avg # of iterations =  1.1

     negative rho (up, down):  0.000E+00 4.417E-04

     total cpu time spent up to now is        1.6 secs

     total energy              =    -653.67847819 Ry
     estimated scf accuracy    <       0.56137314 Ry

     total magnetization       =     5.97 Bohr mag/cell
     absolute magnetization    =     6.30 Bohr mag/cell

     iteration #  3     ecut=    60.00 Ry     beta= 0.70
     Davidson diagonalization with overlap
     ethr =  1.75E-03,  avg # of iterations =  2.8

     negative rho (up, down):  0.000E+00 5.103E-04

     total cpu time spent up to now is        2.3 secs

     total energy              =    -653.71744629 Ry
     estimated scf accuracy    <       0.56118198 Ry

     total magnetization       =     4.56 Bohr mag/cell
     absolute magnetization    =     4.84 Bohr mag/cell

     iteration #  4     ecut=    60.00 Ry     beta= 0.70
     Davidson diagonalization with overlap
     ethr =  1.75E-03,  avg # of iterations =  2.3

     negative rho (up, down):  0.000E+00 4.610E-04

     total cpu time spent up to now is        2.8 secs

     total energy              =    -653.79708653 Ry
     estimated scf accuracy    <       0.02542705 Ry

     total magnetization       =     4.44 Bohr mag/cell
     absolute magnetization    =     4.72 Bohr mag/cell

     iteration #  5     ecut=    60.00 Ry     beta= 0.70
     Davidson diagonalization with overlap
     ethr =  7.95E-05,  avg # of iterations =  3.4

     negative rho (up, down):  0.000E+00 2.605E-04

     total cpu time spent up to now is        3.5 secs

     total energy              =    -653.79928579 Ry
     estimated scf accuracy    <       0.25687809 Ry

     total magnetization       =     4.33 Bohr mag/cell
     absolute magnetization    =     4.59 Bohr mag/cell

     iteration #  6     ecut=    60.00 Ry     beta= 0.70
     Davidson diagonalization with overlap
     ethr =  7.95E-05,  avg # of iterations =  2.1

     negative rho (up, down):  0.000E+00 1.775E-04

     total cpu time spent up to now is        4.0 secs

     total energy              =    -653.81100671 Ry
     estimated scf accuracy    <       0.00417874 Ry

     total magnetization       =     4.23 Bohr mag/cell
     absolute magnetization    =     4.44 Bohr mag/cell

     iteration #  7     ecut=    60.00 Ry     beta= 0.70
     Davidson diagonalization with overlap
     ethr =  1.31E-05,  avg # of iterations =  2.5

     negative rho (up, down):  0.000E+00 1.523E-04

     total cpu time spent up to now is        4.6 secs

     total energy              =    -653.81226394 Ry
     estimated scf accuracy    <       0.00045995 Ry

     total magnetization       =     4.18 Bohr mag/cell
     absolute magnetization    =     4.37 Bohr mag/cell

     iteration #  8     ecut=    60.00 Ry     beta= 0.70
     Davidson diagonalization with overlap
     ethr =  1.44E-06,  avg # of iterations =  1.9

     negative rho (up, down):  0.000E+00 1.536E-04

     total cpu time spent up to now is        5.2 secs

     total energy              =    -653.81232424 Ry
     estimated scf accuracy    <       0.00007393 Ry

     total magnetization       =     4.17 Bohr mag/cell
     absolute magnetization    =     4.35 Bohr mag/cell

     iteration #  9     ecut=    60.00 Ry     beta= 0.70
     Davidson diagonalization with overlap
     ethr =  2.31E-07,  avg # of iterations =  2.1

     negative rho (up, down):  0.000E+00 1.545E-04
 
     Magnetic moment per site  (integrated on atomic sphere of radius R)
     atom   1 (R=0.355)  charge= 14.3214  magn=  2.1194
     atom   2 (R=0.355)  charge= 14.3217  magn=  2.1142

     total cpu time spent up to now is        5.7 secs

     End of self-consistent calculation

     Number of k-points >= 100: set verbosity='high' to print the bands.

     the Fermi energy is    19.2368 ev

!    total energy              =    -653.81233268 Ry
     total all-electron energy =     -5086.463751 Ry
     estimated scf accuracy    <       0.00000039 Ry
     smearing contrib. (-TS)   =      -0.00469800 Ry
     internal energy E=F+TS    =    -653.80763468 Ry

     The total energy is F=E-TS. E is the sum of the following terms:
     one-electron contribution =    -210.64141932 Ry
     hartree contribution      =     126.58411659 Ry
     xc contribution           =     -54.91222411 Ry
     ewald contribution        =    -353.39843949 Ry
     one-center paw contrib.   =    -161.43966835 Ry

     total magnetization       =     4.17 Bohr mag/cell
     absolute magnetization    =     4.35 Bohr mag/cell

     convergence has been achieved in   9 iterations

     Writing all to output data dir ./pwscf.save/
 
     init_run     :      0.30s CPU      0.34s WALL (       1 calls)
     electrons    :      5.03s CPU      5.25s WALL (       1 calls)

     Called by init_run:
     wfcinit      :      0.11s CPU      0.12s WALL (       1 calls)
     potinit      :      0.10s CPU      0.12s WALL (       1 calls)
     hinit0       :      0.07s CPU      0.07s WALL (       1 calls)

     Called by electrons:
     c_bands      :      3.64s CPU      3.81s WALL (       9 calls)
     sum_band     :      0.57s CPU      0.60s WALL (       9 calls)
     v_of_rho     :      0.05s CPU      0.06s WALL (      10 calls)
     newd         :      0.03s CPU      0.03s WALL (      10 calls)
     PAW_pot      :      0.81s CPU      0.84s WALL (      10 calls)
     mix_rho      :      0.01s CPU      0.01s WALL (       9 calls)

     Called by c_bands:
     init_us_2    :      0.04s CPU      0.04s WALL (    1482 calls)
     init_us_2:cp :      0.04s CPU      0.04s WALL (    1482 calls)
     cegterg      :      3.00s CPU      3.15s WALL (     702 calls)

     Called by *egterg:
     cdiaghg      :      0.89s CPU      0.93s WALL (    2351 calls)
     h_psi        :      1.91s CPU      2.03s WALL (    2429 calls)
     s_psi        :      0.03s CPU      0.03s WALL (    2429 calls)
     g_psi        :      0.01s CPU      0.01s WALL (    1649 calls)

     Called by h_psi:
     h_psi:calbec :      0.07s CPU      0.07s WALL (    2429 calls)
     vloc_psi     :      1.79s CPU      1.90s WALL (    2429 calls)
     add_vuspsi   :      0.03s CPU      0.04s WALL (    2429 calls)

     General routines
     calbec       :      0.09s CPU      0.09s WALL (    3131 calls)
     fft          :      0.02s CPU      0.02s WALL (     244 calls)
     ffts         :      0.00s CPU      0.00s WALL (      38 calls)
     fftw         :      1.93s CPU      2.05s WALL (   82492 calls)
     interpolate  :      0.00s CPU      0.00s WALL (      20 calls)
 
     Parallel routines
 
     PWSCF        :      5.51s CPU      5.96s WALL

 
   This run was terminated on:  12:18:56  14Nov2022            

=------------------------------------------------------------------------------=
   JOB DONE.
=------------------------------------------------------------------------------=
