 # Fe2
 
           2  atoms
           1  atom types
 
      0.000000000000       2.851001070393  xlo xhi
      0.000000000000       2.851001070393  ylo yhi
      0.000000000000       2.851001070393  zlo zhi
 
Masses
 
            1   55.84500000             # Fe
 
Atoms # atomic
 
         1    1        0.000000000000       0.000000000000       0.000000000000
         2    1        1.425500535197       1.425500535197       1.425500535197
