# Fe2

2 atoms
1 atom types

0.000000000000 2.851009975683 xlo xhi
0.000000000000 2.851001055179 ylo yhi
0.000000000000 2.850992179165 zlo zhi
0.007131957355 0.007131957355 0.007114138633 xy xz yz

Masses

1 55.84500000 # Fe

Atoms # atomic
  0.0 0.0 0.0 0.0
1 1 0.000000000000 0.000000000000 0.000000000000   0.0 0.0 0.0 0.0
2 1 1.432636945197 1.429057596906 1.425496089583   0.0 0.0 0.0 0.0
