# Fe2

2 atoms
1 atom types

0.000000000000 2.851036737491 xlo xhi
0.000000000000 2.851001189238 ylo yhi
0.000000000000 2.850965283719 zlo zhi
-0.014237186743 -0.014237186743 -0.014308461211 xy xz yz

Masses

1 55.84500000 # Fe

Atoms # atomic
  0.0 0.0 0.0 0.0
1 1 0.000000000000 0.000000000000 0.000000000000   0.0 0.0 0.0 0.0
2 1 1.411281182002 1.418346364013 1.425482641860   0.0 0.0 0.0 0.0
