# Fe2

2 atoms
1 atom types

0.000000000000 2.852784617919 xlo xhi
0.000000000000 2.852784617919 ylo yhi
0.000000000000 2.847437318663 zlo zhi

Masses

1 55.84500000 # Fe

Atoms # atomic

1 1 0.000000000000 0.000000000000 0.000000000000   0.0 0.0 0.0 0.0
2 1 1.426392308960 1.426392308960 1.423718659331   0.0 0.0 0.0 0.0
