# Fe2

2 atoms
1 atom types

0.000000000000 2.856361778720 xlo xhi
0.000000000000 2.856361778720 ylo yhi
0.000000000000 2.840309815988 zlo zhi

Masses

1 55.84500000 # Fe

Atoms # atomic

1 1 0.000000000000 0.000000000000 0.000000000000   0.0 0.0 0.0 0.0
2 1 1.428180889360 1.428180889360 1.420154907994   0.0 0.0 0.0 0.0
