# Fe2

2 atoms
1 atom types

0.000000000000 2.851003296882 xlo xhi
0.000000000000 2.851001068146 ylo yhi
0.000000000000 2.850998844974 zlo zhi
0.003564865009 0.003564865009 0.003560410322 xy xz yz

Masses

1 55.84500000 # Fe

Atoms # atomic
  0.0 0.0 0.0 0.0
1 1 0.000000000000 0.000000000000 0.000000000000   0.0 0.0 0.0 0.0
2 1 1.429066513450 1.427280739234 1.425499422487   0.0 0.0 0.0 0.0
