# Fe2

2 atoms
1 atom types

0.000000000000 2.847443986806 xlo xhi
0.000000000000 2.847443986806 ylo yhi
0.000000000000 2.858128572675 zlo zhi

Masses

1 55.84500000 # Fe

Atoms # atomic

1 1 0.000000000000 0.000000000000 0.000000000000   0.0 0.0 0.0 0.0
2 1 1.423721993403 1.423721993403 1.429064286338   0.0 0.0 0.0 0.0
