# Fe2

2 atoms
1 atom types

0.000000000000 2.851021128718 xlo xhi
0.000000000000 2.851001120256 ylo yhi
0.000000000000 2.850980961167 zlo zhi
-0.010681231009 -0.010681231009 -0.010721323035 xy xz yz

Masses

1 55.84500000 # Fe

Atoms # atomic
  0.0 0.0 0.0 0.0
1 1 0.000000000000 0.000000000000 0.000000000000   0.0 0.0 0.0 0.0
2 1 1.414829333350 1.420139898611 1.425490480583   0.0 0.0 0.0 0.0
