       N       E                     dE             d eps       ncg     rms          rms(c)
DAV:   1    -0.140671371692E+02   -0.14067E+02   -0.28041E-01******   0.244E+01
DAV:   2    -0.140671615614E+02   -0.24392E-04   -0.24393E-04******   0.127E-01
DAV:   3    -0.140671616287E+02   -0.67343E-07   -0.66799E-07******   0.687E-03
DAV:   4    -0.140671616298E+02   -0.11423E-08   -0.89810E-09******   0.677E-04
DAV:   5    -0.140671616306E+02   -0.78035E-09   -0.16490E-10******   0.932E-05
   1 F= -.14067162E+02 E0= -.14067197E+02  d E =0.104734E-03  mag=     0.0000     0.0000     3.1950
