       N       E                     dE             d eps       ncg     rms          rms(c)
DAV:   1    -0.140653721746E+02   -0.14065E+02   -0.28049E-01******   0.244E+01
DAV:   2    -0.140653965215E+02   -0.24347E-04   -0.24346E-04******   0.128E-01
DAV:   3    -0.140653965879E+02   -0.66476E-07   -0.67378E-07******   0.689E-03
DAV:   4    -0.140653965896E+02   -0.17108E-08   -0.91205E-09******   0.681E-04
DAV:   5    -0.140653965887E+02    0.92223E-09   -0.16963E-10******   0.940E-05
   1 F= -.14065397E+02 E0= -.14065427E+02  d E =0.910356E-04  mag=     0.0000     0.0000     3.1892
