       N       E                     dE             d eps       ncg     rms          rms(c)
DAV:   1    -0.140647598897E+02   -0.14065E+02   -0.28065E-01******   0.244E+01
DAV:   2    -0.140647837676E+02   -0.23878E-04   -0.23876E-04******   0.127E-01
DAV:   3    -0.140647838328E+02   -0.65265E-07   -0.65914E-07******   0.684E-03
DAV:   4    -0.140647838338E+02   -0.10004E-08   -0.88465E-09******   0.674E-04
DAV:   5    -0.140647838343E+02   -0.45384E-09   -0.16283E-10******   0.928E-05
   1 F= -.14064784E+02 E0= -.14064716E+02  d E =-.204975E-03  mag=     0.0000     0.0000     3.2096
