       N       E                     dE             d eps       ncg     rms          rms(c)
DAV:   1    -0.140672528579E+02   -0.14067E+02   -0.28039E-01******   0.244E+01
DAV:   2    -0.140672770519E+02   -0.24194E-04   -0.24193E-04******   0.126E-01
DAV:   3    -0.140672771177E+02   -0.65819E-07   -0.66418E-07******   0.685E-03
DAV:   4    -0.140672771189E+02   -0.11833E-08   -0.89203E-09******   0.675E-04
DAV:   5    -0.140672771184E+02    0.45475E-09   -0.16413E-10******   0.929E-05
   1 F= -.14067277E+02 E0= -.14067314E+02  d E =0.110283E-03  mag=     0.0000     0.0000     3.1962
