       N       E                     dE             d eps       ncg     rms          rms(c)
DAV:   1    -0.140671460857E+02   -0.14067E+02   -0.28067E-01******   0.244E+01
DAV:   2    -0.140671702621E+02   -0.24176E-04   -0.24176E-04******   0.127E-01
DAV:   3    -0.140671703279E+02   -0.65844E-07   -0.66103E-07******   0.684E-03
DAV:   4    -0.140671703290E+02   -0.11014E-08   -0.88706E-09******   0.674E-04
DAV:   5    -0.140671703286E+02    0.41382E-09   -0.16372E-10******   0.928E-05
   1 F= -.14067170E+02 E0= -.14067205E+02  d E =0.103436E-03  mag=     0.0000     0.0000     3.1950
