       N       E                     dE             d eps       ncg     rms          rms(c)
DAV:   1    -0.140671703865E+02   -0.14067E+02   -0.28078E-01******   0.244E+01
DAV:   2    -0.140671945357E+02   -0.24149E-04   -0.24149E-04******   0.127E-01
DAV:   3    -0.140671946008E+02   -0.65108E-07   -0.66054E-07******   0.683E-03
DAV:   4    -0.140671946021E+02   -0.12724E-08   -0.88715E-09******   0.673E-04
DAV:   5    -0.140671946021E+02   -0.29104E-10   -0.16414E-10******   0.926E-05
   1 F= -.14067195E+02 E0= -.14067230E+02  d E =0.107396E-03  mag=     0.0000     0.0000     3.1933
