#

2 atoms
1 atom types

0.000000000000 2.851495923118 xlo xhi
0.000000000000 2.851444751438 ylo yhi
0.000000000000 2.851392962000 zlo zhi
-0.017083004821 -0.017083004821 -0.017185655668 xy xz yz

Masses

1 55.84500000 # Fe

Atoms # atomic
  0.0 0.0 0.0 0.0
1 1 1.408664956738 1.417129547885 1.425696481000   0.0 0.0 0.0 0.0
2 1 0.000000000000 0.000000000000 0.000000000000   0.0 0.0 0.0 0.0
