#

2 atoms
1 atom types

0.000000000000 2.851528001683 xlo xhi
0.000000000000 2.851412001570 ylo yhi
0.000000000000 2.851298070773 zlo zhi
0.025720452634 0.025720452634 0.025489494039 xy xz yz

Masses

1 55.84500000 # Fe

Atoms # atomic
  0.0 0.0 0.0 0.0
1 1 1.451484453475 1.438450747805 1.425649035386   0.0 0.0 0.0 0.0
2 1 0.000000000000 0.000000000000 0.000000000000   0.0 0.0 0.0 0.0
