#

2 atoms
1 atom types

0.000000000000 2.851630650685 xlo xhi
0.000000000000 2.851312297661 ylo yhi
0.000000000000 2.850984249438 zlo zhi
-0.042609261101 -0.042609261101 -0.043250760077 xy xz yz

Masses

1 55.84500000 # Fe

Atoms # atomic
  0.0 0.0 0.0 0.0
1 1 1.383206064241 1.404030768792 1.425492124719   0.0 0.0 0.0 0.0
2 1 0.000000000000 0.000000000000 0.000000000000   0.0 0.0 0.0 0.0
