 #
 
           2  atoms
           1  atom types
 
      0.000000000000       2.851630650685  xlo xhi
      0.000000000000       2.851307486076  ylo yhi
      0.000000000000       2.850993872338  zlo zhi
      0.042930033449       0.042930033449       0.042288533255  xy xz yz
 
Masses
 
            1   55.84500000             # Fe
 
Atoms # atomic
 
         1    1        1.468745358791       1.446798009666       1.425496936169
         2    1        0.000000000000       0.000000000000       0.000000000000
