#

2 atoms
1 atom types

0.000000000000 2.817252547500 xlo xhi
0.000000000000 2.817252547500 ylo yhi
0.000000000000 2.851470260000 zlo zhi

Masses

1 55.84500000 # Fe

Atoms # atomic

1 1 1.408626273750 1.408626273750 1.425735130000   0.0 0.0 0.0 0.0
2 1 0.000000000000 0.000000000000 0.000000000000   0.0 0.0 0.0 0.0
