#

2 atoms
1 atom types

0.000000000000 2.851701219717 xlo xhi
0.000000000000 2.851235189940 ylo yhi
0.000000000000 2.850785638623 zlo zhi
0.051553255826 0.051553255826 0.050629546396 xy xz yz

Masses

1 55.84500000 # Fe

Atoms # atomic
  0.0 0.0 0.0 0.0
1 1 1.477403865685 1.450932368168 1.425392819312   0.0 0.0 0.0 0.0
2 1 0.000000000000 0.000000000000 0.000000000000   0.0 0.0 0.0 0.0
