#

2 atoms
1 atom types

0.000000000000 2.825807018100 xlo xhi
0.000000000000 2.825807018100 ylo yhi
0.000000000000 2.851470260000 zlo zhi

Masses

1 55.84500000 # Fe

Atoms # atomic

1 1 1.412903509050 1.412903509050 1.425735130000   0.0 0.0 0.0 0.0
2 1 0.000000000000 0.000000000000 0.000000000000   0.0 0.0 0.0 0.0
