#

2 atoms
1 atom types

0.000000000000 2.851476675801 xlo xhi
0.000000000000 2.851463863483 ylo yhi
0.000000000000 2.851450974059 zlo zhi
-0.008547975759 -0.008547975759 -0.008573638861 xy xz yz

Masses

1 55.84500000 # Fe

Atoms # atomic
  0.0 0.0 0.0 0.0
1 1 1.417190362141 1.421445112311 1.425725487030   0.0 0.0 0.0 0.0
2 1 0.000000000000 0.000000000000 0.000000000000   0.0 0.0 0.0 0.0
