#

2 atoms
1 atom types

0.000000000000 2.851572911083 xlo xhi
0.000000000000 2.851368849946 ylo yhi
0.000000000000 2.851159832128 zlo zhi
-0.034113762396 -0.034113762396 -0.034524340662 xy xz yz

Masses

1 55.84500000 # Fe

Atoms # atomic
  0.0 0.0 0.0 0.0
1 1 1.391672693146 1.408422254642 1.425579916064   0.0 0.0 0.0 0.0
2 1 0.000000000000 0.000000000000 0.000000000000   0.0 0.0 0.0 0.0
