#

2 atoms
1 atom types

0.000000000000 2.851495923118 xlo xhi
0.000000000000 2.851444443482 ylo yhi
0.000000000000 2.851393577909 zlo zhi
0.017134330825 0.017134330825 0.017031679965 xy xz yz

Masses

1 55.84500000 # Fe

Atoms # atomic
  0.0 0.0 0.0 0.0
1 1 1.442882292384 1.434238061723 1.425696788955   0.0 0.0 0.0 0.0
2 1 0.000000000000 0.000000000000 0.000000000000   0.0 0.0 0.0 0.0
