#

2 atoms
1 atom types

0.000000000000 2.894242273100 xlo xhi
0.000000000000 2.894242273100 ylo yhi
0.000000000000 2.894242273100 zlo zhi

Masses

1 55.84500000 # Fe

Atoms # atomic

1 1 1.447121136550 1.447121136550 1.447121136550   0.0 0.0 0.0 0.0
2 1 0.000000000000 0.000000000000 0.000000000000   0.0 0.0 0.0 0.0
