#

2 atoms
1 atom types

0.000000000000 2.851572911083 xlo xhi
0.000000000000 2.851366386364 ylo yhi
0.000000000000 2.851164759203 zlo zhi
0.034319060867 0.034319060867 0.033908482202 xy xz yz

Masses

1 55.84500000 # Fe

Atoms # atomic
  0.0 0.0 0.0 0.0
1 1 1.460105516409 1.442637434283 1.425582379601   0.0 0.0 0.0 0.0
2 1 0.000000000000 0.000000000000 0.000000000000   0.0 0.0 0.0 0.0
