#

2 atoms
1 atom types

0.000000000000 2.851701219717 xlo xhi
0.000000000000 2.851243504152 ylo yhi
0.000000000000 2.850769010872 zlo zhi
-0.051091355098 -0.051091355098 -0.052015061498 xy xz yz

Masses

1 55.84500000 # Fe

Atoms # atomic
  0.0 0.0 0.0 0.0
1 1 1.374759254761 1.399614221327 1.425384505436   0.0 0.0 0.0 0.0
2 1 0.000000000000 0.000000000000 0.000000000000   0.0 0.0 0.0 0.0
