#

2 atoms
1 atom types

0.000000000000 2.851528001683 xlo xhi
0.000000000000 2.851413040910 ylo yhi
0.000000000000 2.851295992114 zlo zhi
-0.025604970437 -0.025604970437 -0.025835928937 xy xz yz

Masses

1 55.84500000 # Fe

Atoms # atomic
  0.0 0.0 0.0 0.0
1 1 1.400159030404 1.412788555987 1.425647996057   0.0 0.0 0.0 0.0
2 1 0.000000000000 0.000000000000 0.000000000000   0.0 0.0 0.0 0.0
