 #
 
           2  atoms
           1  atom types
 
      0.000000000000       2.877133331900  xlo xhi
      0.000000000000       2.877133331900  ylo yhi
      0.000000000000       2.877133331900  zlo zhi
 
Masses
 
            1   55.84500000             # Fe
 
Atoms # atomic
 
         1    1        1.438566665950       1.438566665950       1.438566665950
         2    1        0.000000000000       0.000000000000       0.000000000000
