#

2 atoms
1 atom types

0.000000000000 2.851476675801 xlo xhi
0.000000000000 2.851463824988 ylo yhi
0.000000000000 2.851451051049 zlo zhi
0.008560807346 0.008560807346 0.008535144244 xy xz yz

Masses

1 55.84500000 # Fe

Atoms # atomic
  0.0 0.0 0.0 0.0
1 1 1.434299145247 1.429999484616 1.425725525524   0.0 0.0 0.0 0.0
2 1 0.000000000000 0.000000000000 0.000000000000   0.0 0.0 0.0 0.0
