
     Program PWSCF v.7.1 starts on 14Nov2022 at 12:19:23 

     This program is part of the open-source Quantum ESPRESSO suite
     for quantum simulation of materials; please cite
         "P. Giannozzi et al., J. Phys.:Condens. Matter 21 395502 (2009);
         "P. Giannozzi et al., J. Phys.:Condens. Matter 29 465901 (2017);
         "P. Giannozzi et al., J. Chem. Phys. 152 154105 (2020);
          URL http://www.quantum-espresso.org", 
     in publications or presentations arising from this work. More details at
     http://www.quantum-espresso.org/quote

     Parallel version (MPI & OpenMP), running on      36 processor cores
     Number of MPI processes:                36
     Threads/MPI process:                     1

     MPI processes distributed on     1 nodes
     178709 MiB available memory on the printing compute node when the environment starts
 
     Waiting for input...
     Reading input from standard input
Warning: card &CELL ignored
Warning: card / ignored

     Current dimensions of program PWSCF are:
     Max number of different atomic species (ntypx) = 10
     Max number of k-points (npk) =  40000
     Max angular momentum in pseudopotentials (lmaxx) =  4
     file Fe.pbesol-spn-kjpaw_psl.1.0.0.UPF: wavefunction(s)  3P 3D renormalized
     Found identity + (  0.5000  0.5000 -0.5000) symmetry
     This is a supercell, fractional translations are disabled
     Message from routine setup:
     using ibrav=0 with symmetry is DISCOURAGED, use correct ibrav instead
 
     K-points division:     npool     =       3
     R & G space division:  proc/nbgrp/npool/nimage =      12
     Subspace diagonalization in iterative solution of the eigenvalue problem:
     a serial algorithm will be used

 
     Parallelization info
     --------------------
     sticks:   dense  smooth     PW     G-vecs:    dense   smooth      PW
     Min          86      42     14                 2122      747     138
     Max          87      44     16                 2125      749     139
     Sum        1041     517    177                25485     8973    1663
 
     Using Slab Decomposition
 

     Title: 
     #                                                                          


     bravais-lattice index     =            0
     lattice parameter (alat)  =       5.2092  a.u.
     unit-cell volume          =     143.0691 (a.u.)^3
     number of atoms/cell      =            2
     number of atomic types    =            1
     number of electrons       =        32.00
     number of Kohn-Sham states=           20
     kinetic-energy cutoff     =      60.0000  Ry
     charge density cutoff     =     480.0000  Ry
     scf convergence threshold =      1.0E-06
     mixing beta               =       0.7000
     number of iterations used =            8  plain     mixing
     Exchange-correlation= SLA  PW   PSX  PSC
                           (   1   4  10   8   0   0   0)

     celldm(1)=   5.209159  celldm(2)=   0.000000  celldm(3)=   0.000000
     celldm(4)=   0.000000  celldm(5)=   0.000000  celldm(6)=   0.000000

     crystal axes: (cart. coord. in units of alat)
               a(1) = (   1.000000   0.000000   0.000000 )  
               a(2) = (   0.000000   1.000000   0.000000 )  
               a(3) = (   0.000000   0.000000   1.012146 )  

     reciprocal axes: (cart. coord. in units 2 pi/alat)
               b(1) = (  1.000000  0.000000  0.000000 )  
               b(2) = (  0.000000  1.000000  0.000000 )  
               b(3) = (  0.000000  0.000000  0.988000 )  


     PseudoPot. # 1 for Fe read from file:
     /home/nie0061/qe/pseudo/Fe.pbesol-spn-kjpaw_psl.1.0.0.UPF
     MD5 check sum: e30d5f36a6f0cb983ee41abee56170da
     Pseudo is Projector augmented-wave + core cor, Zval = 16.0
     Generated using &quot;atomic&quot; code by A. Dal Corso  v.6.3
     Shape of augmentation charge: PSQ
     Using radial grid of 1191 points,  6 beta functions with: 
                l(1) =   0
                l(2) =   0
                l(3) =   1
                l(4) =   1
                l(5) =   2
                l(6) =   2
     Q(r) pseudized with 0 coefficients 


     atomic species   valence    mass     pseudopotential
        Fe            16.00    55.84500     Fe( 1.00)

     Starting magnetic structure 
     atomic species   magnetization
        Fe           0.700

     16 Sym. Ops., with inversion, found



   Cartesian axes

     site n.     atom                  positions (alat units)
         1           Fe  tau(   1) = (   0.0000000   0.0000000   0.0000000  )
         2           Fe  tau(   2) = (   0.5000000   0.5000000   0.5060729  )

     number of k points=   126  Gaussian smearing, width (Ry)=  0.0200

     Number of k-points >= 100: set verbosity='high' to print them.

     Dense  grid:    25485 G-vectors     FFT dimensions: (  40,  40,  40)

     Smooth grid:     8973 G-vectors     FFT dimensions: (  25,  25,  25)

     Estimated max dynamical RAM per process >       8.51 MB

     Estimated total dynamical RAM >     281.50 MB

     Check: negative core charge=   -0.000003
     Generating pointlists ...
     new r_m :   0.3587 (alat units)  1.8685 (a.u.) for type    1

     Initial potential from superposition of free atoms

     starting charge      31.9992, renormalised to      32.0000
     Starting wfcs are   20 randomized atomic wfcs
     Checking if some PAW data can be deallocated... 

     total cpu time spent up to now is        0.4 secs

     Self-consistent Calculation

     iteration #  1     ecut=    60.00 Ry     beta= 0.70
     Davidson diagonalization with overlap
     ethr =  1.00E-02,  avg # of iterations =  3.6

     negative rho (up, down):  0.000E+00 5.598E-04

     total cpu time spent up to now is        1.2 secs

     total energy              =    -653.26528942 Ry
     estimated scf accuracy    <       3.09461364 Ry

     total magnetization       =     7.42 Bohr mag/cell
     absolute magnetization    =     7.49 Bohr mag/cell

     iteration #  2     ecut=    60.00 Ry     beta= 0.70
     Davidson diagonalization with overlap
     ethr =  9.67E-03,  avg # of iterations =  1.0

     negative rho (up, down):  0.000E+00 4.260E-04

     total cpu time spent up to now is        1.6 secs

     total energy              =    -653.67738924 Ry
     estimated scf accuracy    <       0.56500225 Ry

     total magnetization       =     5.92 Bohr mag/cell
     absolute magnetization    =     6.24 Bohr mag/cell

     iteration #  3     ecut=    60.00 Ry     beta= 0.70
     Davidson diagonalization with overlap
     ethr =  1.77E-03,  avg # of iterations =  2.8

     negative rho (up, down):  0.000E+00 4.915E-04

     total cpu time spent up to now is        2.3 secs

     total energy              =    -653.71994700 Ry
     estimated scf accuracy    <       0.54816847 Ry

     total magnetization       =     4.48 Bohr mag/cell
     absolute magnetization    =     4.75 Bohr mag/cell

     iteration #  4     ecut=    60.00 Ry     beta= 0.70
     Davidson diagonalization with overlap
     ethr =  1.71E-03,  avg # of iterations =  2.2

     negative rho (up, down):  0.000E+00 4.191E-04

     total cpu time spent up to now is        2.9 secs

     total energy              =    -653.79853895 Ry
     estimated scf accuracy    <       0.01726179 Ry

     total magnetization       =     4.36 Bohr mag/cell
     absolute magnetization    =     4.63 Bohr mag/cell

     iteration #  5     ecut=    60.00 Ry     beta= 0.70
     Davidson diagonalization with overlap
     ethr =  5.39E-05,  avg # of iterations =  3.8

     negative rho (up, down):  0.000E+00 2.502E-04

     total cpu time spent up to now is        3.7 secs

     total energy              =    -653.79461059 Ry
     estimated scf accuracy    <       0.36453503 Ry

     total magnetization       =     4.20 Bohr mag/cell
     absolute magnetization    =     4.44 Bohr mag/cell

     iteration #  6     ecut=    60.00 Ry     beta= 0.70
     Davidson diagonalization with overlap
     ethr =  5.39E-05,  avg # of iterations =  2.6

     negative rho (up, down):  0.000E+00 1.459E-04

     total cpu time spent up to now is        4.3 secs

     total energy              =    -653.80999497 Ry
     estimated scf accuracy    <       0.00560020 Ry

     total magnetization       =     4.16 Bohr mag/cell
     absolute magnetization    =     4.36 Bohr mag/cell

     iteration #  7     ecut=    60.00 Ry     beta= 0.70
     Davidson diagonalization with overlap
     ethr =  1.75E-05,  avg # of iterations =  2.8

     negative rho (up, down):  0.000E+00 1.395E-04

     total cpu time spent up to now is        5.0 secs

     total energy              =    -653.81182670 Ry
     estimated scf accuracy    <       0.00132559 Ry

     total magnetization       =     4.09 Bohr mag/cell
     absolute magnetization    =     4.26 Bohr mag/cell

     iteration #  8     ecut=    60.00 Ry     beta= 0.70
     Davidson diagonalization with overlap
     ethr =  4.14E-06,  avg # of iterations =  2.2

     negative rho (up, down):  0.000E+00 1.359E-04

     total cpu time spent up to now is        5.5 secs

     total energy              =    -653.81201307 Ry
     estimated scf accuracy    <       0.00003531 Ry

     total magnetization       =     4.10 Bohr mag/cell
     absolute magnetization    =     4.26 Bohr mag/cell

     iteration #  9     ecut=    60.00 Ry     beta= 0.70
     Davidson diagonalization with overlap
     ethr =  1.10E-07,  avg # of iterations =  3.1

     negative rho (up, down):  0.000E+00 1.376E-04

     total cpu time spent up to now is        6.2 secs

     total energy              =    -653.81202202 Ry
     estimated scf accuracy    <       0.00000147 Ry

     total magnetization       =     4.10 Bohr mag/cell
     absolute magnetization    =     4.26 Bohr mag/cell

     iteration # 10     ecut=    60.00 Ry     beta= 0.70
     Davidson diagonalization with overlap
     ethr =  4.60E-09,  avg # of iterations =  3.2

     negative rho (up, down):  0.000E+00 1.375E-04

     total cpu time spent up to now is        6.8 secs

     total energy              =    -653.81202237 Ry
     estimated scf accuracy    <       0.00000103 Ry

     total magnetization       =     4.09 Bohr mag/cell
     absolute magnetization    =     4.26 Bohr mag/cell

     iteration # 11     ecut=    60.00 Ry     beta= 0.70
     Davidson diagonalization with overlap
     ethr =  3.21E-09,  avg # of iterations =  2.2

     negative rho (up, down):  0.000E+00 1.373E-04
 
     Magnetic moment per site  (integrated on atomic sphere of radius R)
     atom   1 (R=0.359)  charge= 14.3313  magn=  2.0730
     atom   2 (R=0.359)  charge= 14.3316  magn=  2.0738

     total cpu time spent up to now is        7.4 secs

     End of self-consistent calculation

     Number of k-points >= 100: set verbosity='high' to print the bands.

     the Fermi energy is    19.8215 ev

!    total energy              =    -653.81202249 Ry
     total all-electron energy =     -5086.463441 Ry
     estimated scf accuracy    <       0.00000014 Ry
     smearing contrib. (-TS)   =      -0.00470797 Ry
     internal energy E=F+TS    =    -653.80731451 Ry

     The total energy is F=E-TS. E is the sum of the following terms:
     one-electron contribution =    -206.12369515 Ry
     hartree contribution      =     124.95852446 Ry
     xc contribution           =     -54.94476406 Ry
     ewald contribution        =    -356.25707667 Ry
     one-center paw contrib.   =    -161.44030309 Ry

     total magnetization       =     4.09 Bohr mag/cell
     absolute magnetization    =     4.26 Bohr mag/cell

     convergence has been achieved in  11 iterations

     Writing all to output data dir ./pwscf.save/
 
     init_run     :      0.29s CPU      0.34s WALL (       1 calls)
     electrons    :      6.68s CPU      6.99s WALL (       1 calls)

     Called by init_run:
     wfcinit      :      0.12s CPU      0.13s WALL (       1 calls)
     potinit      :      0.09s CPU      0.12s WALL (       1 calls)
     hinit0       :      0.06s CPU      0.06s WALL (       1 calls)

     Called by electrons:
     c_bands      :      4.97s CPU      5.22s WALL (      11 calls)
     sum_band     :      0.70s CPU      0.73s WALL (      11 calls)
     v_of_rho     :      0.07s CPU      0.07s WALL (      12 calls)
     newd         :      0.03s CPU      0.03s WALL (      12 calls)
     PAW_pot      :      0.98s CPU      1.01s WALL (      12 calls)
     mix_rho      :      0.01s CPU      0.01s WALL (      11 calls)

     Called by c_bands:
     init_us_2    :      0.05s CPU      0.06s WALL (    1932 calls)
     init_us_2:cp :      0.05s CPU      0.05s WALL (    1932 calls)
     cegterg      :      4.24s CPU      4.47s WALL (     924 calls)

     Called by *egterg:
     cdiaghg      :      1.30s CPU      1.35s WALL (    3313 calls)
     h_psi        :      2.65s CPU      2.81s WALL (    3397 calls)
     s_psi        :      0.04s CPU      0.05s WALL (    3397 calls)
     g_psi        :      0.01s CPU      0.01s WALL (    2389 calls)

     Called by h_psi:
     h_psi:calbec :      0.10s CPU      0.10s WALL (    3397 calls)
     vloc_psi     :      2.48s CPU      2.63s WALL (    3397 calls)
     add_vuspsi   :      0.05s CPU      0.05s WALL (    3397 calls)

     General routines
     calbec       :      0.12s CPU      0.13s WALL (    4321 calls)
     fft          :      0.02s CPU      0.03s WALL (     294 calls)
     ffts         :      0.00s CPU      0.00s WALL (      46 calls)
     fftw         :      2.65s CPU      2.81s WALL (  113374 calls)
     interpolate  :      0.00s CPU      0.00s WALL (      24 calls)
 
     Parallel routines
 
     PWSCF        :      7.16s CPU      7.72s WALL

 
   This run was terminated on:  12:19:30  14Nov2022            

=------------------------------------------------------------------------------=
   JOB DONE.
=------------------------------------------------------------------------------=
