 CRYSTAL
 PRIMVEC
2.8081433 .0000000 .0000000
.0000000 2.8081433 .0000000
.0000000 .0000000 2.8081433
 PRIMCOORD
           2  1
  26  .0000000 .0000000 .0000000
  26  1.4040717 1.4040717 1.4040717
 
