       N       E                     dE             d eps       ncg     rms          rms(c)
DAV:   1     0.644614790002E+02    0.64461E+02   -0.22134E+04   128088   0.203E+03
DAV:   2    -0.137117388971E+02   -0.78173E+02   -0.77415E+02   133080   0.196E+02
DAV:   3    -0.141777842670E+02   -0.46605E+00   -0.46603E+00   143376   0.221E+01
DAV:   4    -0.141799613402E+02   -0.21771E-02   -0.21771E-02   173976   0.127E+00
DAV:   5    -0.141799736577E+02   -0.12318E-04   -0.12317E-04   145488   0.678E-02    0.310E+01
DAV:   6    -0.163658899257E+02   -0.21859E+01   -0.21157E+01   130248   0.385E+01    0.658E+00
DAV:   7    -0.165201032785E+02   -0.15421E+00   -0.12570E+00   129480   0.856E+00    0.404E+00
DAV:   8    -0.165441600941E+02   -0.24057E-01   -0.33855E-02   139944   0.153E+00    0.131E+00
DAV:   9    -0.165370366254E+02    0.71235E-02   -0.19735E-02   136560   0.850E-01    0.380E-01
DAV:  10    -0.165366463545E+02    0.39027E-03   -0.28703E-03   130176   0.552E-01    0.524E-02
DAV:  11    -0.165366956156E+02   -0.49261E-04   -0.99909E-05   133488   0.694E-02    0.269E-02
DAV:  12    -0.165366948547E+02    0.76093E-06   -0.90298E-06   145680   0.235E-02    0.105E-02
DAV:  13    -0.165366949006E+02   -0.45916E-07   -0.12551E-06   136104   0.997E-03    0.436E-03
DAV:  14    -0.165366950155E+02   -0.11486E-06   -0.93851E-07   141744   0.445E-03    0.704E-04
DAV:  15    -0.165366950426E+02   -0.27072E-07   -0.11140E-08    67008   0.107E-03
   1 F= -.16536695E+02 E0= -.16536675E+02  d E =-.593232E-04  mag=     4.4049
