 # 229 Fe_pv
 
           2  atoms
           1  atom types
 
      0.000000000000       2.86642687316  xlo xhi
      0.000000000000       2.86642687316  ylo yhi
      0.000000000000       2.86642687316  zlo zhi
 
Masses
 
            1   55.84500000             # Fe
 
Atoms # atomic
 
         1    1        0.000000000000       0.000000000000       0.000000000000
         2    1        1.43321343658        1.43321343658        1.43321343658
