       N       E                     dE             d eps       ncg     rms          rms(c)
DAV:   1    -0.164685551450E+02   -0.16469E+02    0.10988E+03******   0.199E+01
DAV:   2    -0.164686021536E+02   -0.47009E-04   -0.47010E-04******   0.199E-01
DAV:   3    -0.164686023273E+02   -0.17362E-06   -0.17394E-06******   0.114E-02
DAV:   4    -0.164686023309E+02   -0.36762E-08   -0.31877E-08******   0.138E-03
DAV:   5    -8.77887159781039    0.26012E-09   -0.81356E-10******   0.206E-04
   1 F= -8.77887159781039 E0= -.16468602E+02  d E =0.000000E+00  mag=     0.0000     0.0000     4.4391
