#

2 atoms
1 atom types

0.000000000000 2.866728466777 xlo xhi
0.000000000000 2.866268339245 ylo yhi
0.000000000000 2.865791345587 zlo zhi
-0.051360584782 -0.051360584782 -0.052289158723 xy xz yz

Masses

1 55.84500000 # Fe

Atoms # atomic
  0.0 0.0 0.0 0.0
1 1 1.382003648606 1.406989590261 1.432895672793   0.0 0.0 0.0 0.0
2 1 0.000000000000 0.000000000000 0.000000000000   0.0 0.0 0.0 0.0
