# Fe2

2 atoms
1 atom types

0.000000000000 2.875981626233 xlo xhi
0.000000000000 2.875981626233 ylo yhi
0.000000000000 2.875981626233 zlo zhi

Masses

1 55.84500000 # Fe

Atoms # atomic

1 1 0.000000000000 0.000000000000 0.000000000000   0.0 0.0 0.0 0.0
2 1 1.437990813117 1.437990813117 1.437990813117   0.0 0.0 0.0 0.0
