#

2 atoms
1 atom types

0.000000000000 2.866502739610 xlo xhi
0.000000000000 2.866489859775 ylo yhi
0.000000000000 2.866476902430 zlo zhi
-0.008593020049 -0.008593020049 -0.008618818385 xy xz yz

Masses

1 55.84500000 # Fe

Atoms # atomic
  0.0 0.0 0.0 0.0
1 1 1.424658349756 1.428935520695 1.433238451215   0.0 0.0 0.0 0.0
2 1 0.000000000000 0.000000000000 0.000000000000   0.0 0.0 0.0 0.0
