 #
 
           2  atoms
           1  atom types
 
      0.000000000000       2.866484914552  xlo xhi
      0.000000000000       2.866368305991  ylo yhi
      0.000000000000       2.866253777600  zlo zhi
      0.025855362374       0.025855362374       0.025623192347  xy xz yz
 
Masses
 
            1   55.84500000             # Fe
 
Atoms # atomic
 
         1    1        1.459097819650       1.445995749169       1.433126888800
         2    1        0.000000000000       0.000000000000       0.000000000000
