#

2 atoms
1 atom types

0.000000000000 2.866657525875 xlo xhi
0.000000000000 2.866332658327 ylo yhi
0.000000000000 2.866017391979 zlo zhi
0.043156256338 0.043156256338 0.042511375714 xy xz yz

Masses

1 55.84500000 # Fe

Atoms # atomic
  0.0 0.0 0.0 0.0
1 1 1.476485019275 1.454422017020 1.433008695990   0.0 0.0 0.0 0.0
2 1 0.000000000000 0.000000000000 0.000000000000   0.0 0.0 0.0 0.0
