#

2 atoms
1 atom types

0.000000000000 2.823430508000 xlo xhi
0.000000000000 2.823430508000 ylo yhi
0.000000000000 2.823430508000 zlo zhi

Masses

1 55.84500000 # Fe

Atoms # atomic

1 1 1.411715254000 1.411715254000 1.411715254000   0.0 0.0 0.0 0.0
2 1 0.000000000000 0.000000000000 0.000000000000   0.0 0.0 0.0 0.0
