 #
 
           2  atoms
           1  atom types
 
      0.000000000000       2.866599482011  xlo xhi
      0.000000000000       2.866391868994  ylo yhi
      0.000000000000       2.866189179344  zlo zhi
      0.034499907694       0.034499907694       0.034087165454  xy xz yz
 
Masses
 
            1   55.84500000             # Fe
 
Atoms # atomic
 
         1    1        1.467799648699       1.450239517224       1.433094589672
         2    1        0.000000000000       0.000000000000       0.000000000000
