#

2 atoms
1 atom types

0.000000000000 2.866588101969 xlo xhi
0.000000000000 2.866263242291 ylo yhi
0.000000000000 2.865947983579 zlo zhi
0.043155211091 0.043155211091 0.042510346088 xy xz yz

Masses

1 55.84500000 # Fe

Atoms # atomic
  0.0 0.0 0.0 0.0
1 1 1.476449262076 1.454386794189 1.432973991790   0.0 0.0 0.0 0.0
2 1 0.000000000000 0.000000000000 0.000000000000   0.0 0.0 0.0 0.0
