#

2 atoms
1 atom types

0.000000000000 2.866502739610 xlo xhi
0.000000000000 2.866489821078 ylo yhi
0.000000000000 2.866476979825 zlo zhi
0.008605919254 0.008605919254 0.008580120917 xy xz yz

Masses

1 55.84500000 # Fe

Atoms # atomic
  0.0 0.0 0.0 0.0
1 1 1.441857289058 1.437534970997 1.433238489913   0.0 0.0 0.0 0.0
2 1 0.000000000000 0.000000000000 0.000000000000   0.0 0.0 0.0 0.0
