#

2 atoms
1 atom types

0.000000000000 2.892224550500 xlo xhi
0.000000000000 2.892224550500 ylo yhi
0.000000000000 2.866426870000 zlo zhi

Masses

1 55.84500000 # Fe

Atoms # atomic

1 1 1.446112275250 1.446112275250 1.433213435000   0.0 0.0 0.0 0.0
2 1 0.000000000000 0.000000000000 0.000000000000   0.0 0.0 0.0 0.0
