#

2 atoms
1 atom types

0.000000000000 2.866433319453 xlo xhi
0.000000000000 2.866420439931 ylo yhi
0.000000000000 2.866407482900 zlo zhi
-0.008592811806 -0.008592811806 -0.008618609517 xy xz yz

Masses

1 55.84500000 # Fe

Atoms # atomic
  0.0 0.0 0.0 0.0
1 1 1.424623847921 1.428900915207 1.433203741450   0.0 0.0 0.0 0.0
2 1 0.000000000000 0.000000000000 0.000000000000   0.0 0.0 0.0 0.0
