#

2 atoms
1 atom types

0.000000000000 2.892294595300 xlo xhi
0.000000000000 2.892294595300 ylo yhi
0.000000000000 2.892294595300 zlo zhi

Masses

1 55.84500000 # Fe

Atoms # atomic

1 1 1.446147297650 1.446147297650 1.446147297650   0.0 0.0 0.0 0.0
2 1 0.000000000000 0.000000000000 0.000000000000   0.0 0.0 0.0 0.0
