#

2 atoms
1 atom types

0.000000000000 2.866599482011 xlo xhi
0.000000000000 2.866394345558 ylo yhi
0.000000000000 2.866184226305 zlo zhi
-0.034293527387 -0.034293527387 -0.034706269226 xy xz yz

Masses

1 55.84500000 # Fe

Atoms # atomic
  0.0 0.0 0.0 0.0
1 1 1.399006213619 1.415844038166 1.433092113153   0.0 0.0 0.0 0.0
2 1 0.000000000000 0.000000000000 0.000000000000   0.0 0.0 0.0 0.0
