#

2 atoms
1 atom types

0.000000000000 2.866433319453 xlo xhi
0.000000000000 2.866420401235 ylo yhi
0.000000000000 2.866407560294 zlo zhi
0.008605710698 0.008605710698 0.008579912986 xy xz yz

Masses

1 55.84500000 # Fe

Atoms # atomic
  0.0 0.0 0.0 0.0
1 1 1.441822370424 1.437500157111 1.433203780147   0.0 0.0 0.0 0.0
2 1 0.000000000000 0.000000000000 0.000000000000   0.0 0.0 0.0 0.0
