 #
 
           2  atoms
           1  atom types
 
      0.000000000000       2.918022572800  xlo xhi
      0.000000000000       2.918022572800  ylo yhi
      0.000000000000       2.918022572800  zlo zhi
 
Masses
 
            1   55.84500000             # Fe
 
Atoms # atomic
 
         1    1        1.459011286400       1.459011286400       1.459011286400
         2    1        0.000000000000       0.000000000000       0.000000000000
