#

2 atoms
1 atom types

0.000000000000 2.849297362800 xlo xhi
0.000000000000 2.849297362800 ylo yhi
0.000000000000 2.849297362800 zlo zhi

Masses

1 55.84500000 # Fe

Atoms # atomic

1 1 1.424648681400 1.424648681400 1.424648681400   0.0 0.0 0.0 0.0
2 1 0.000000000000 0.000000000000 0.000000000000   0.0 0.0 0.0 0.0
