# Fe2

2 atoms
1 atom types

0.000000000000 2.847317357533 xlo xhi
0.000000000000 2.847317357533 ylo yhi
0.000000000000 2.847317357533 zlo zhi

Masses

1 55.84500000 # Fe

Atoms # atomic

1 1 0.000000000000 0.000000000000 0.000000000000   0.0 0.0 0.0 0.0
2 1 1.423658678767 1.423658678767 1.423658678767   0.0 0.0 0.0 0.0
