#

2 atoms
1 atom types

0.000000000000 2.866530059512 xlo xhi
0.000000000000 2.866322451523 ylo yhi
0.000000000000 2.866119766780 zlo zhi
0.034499072225 0.034499072225 0.034086339980 xy xz yz

Masses

1 55.84500000 # Fe

Atoms # atomic
  0.0 0.0 0.0 0.0
1 1 1.467764101981 1.450204395751 1.433059883390   0.0 0.0 0.0 0.0
2 1 0.000000000000 0.000000000000 0.000000000000   0.0 0.0 0.0 0.0
