#

2 atoms
1 atom types

0.000000000000 2.866522088351 xlo xhi
0.000000000000 2.866470337440 ylo yhi
0.000000000000 2.866419203829 zlo zhi
0.017224621246 0.017224621246 0.017121429462 xy xz yz

Masses

1 55.84500000 # Fe

Atoms # atomic
  0.0 0.0 0.0 0.0
1 1 1.450485665421 1.441795883451 1.433209601914   0.0 0.0 0.0 0.0
2 1 0.000000000000 0.000000000000 0.000000000000   0.0 0.0 0.0 0.0
