# Fe2

2 atoms
1 atom types

0.000000000000 2.885606265267 xlo xhi
0.000000000000 2.885606265267 ylo yhi
0.000000000000 2.885606265267 zlo zhi

Masses

1 55.84500000 # Fe

Atoms # atomic

1 1 0.000000000000 0.000000000000 0.000000000000   0.0 0.0 0.0 0.0
2 1 1.442803132633 1.442803132633 1.442803132633   0.0 0.0 0.0 0.0
