#

2 atoms
1 atom types

0.000000000000 2.866657525875 xlo xhi
0.000000000000 2.866337495267 ylo yhi
0.000000000000 2.866007718371 zlo zhi
-0.042833793658 -0.042833793658 -0.043478673058 xy xz yz

Masses

1 55.84500000 # Fe

Atoms # atomic
  0.0 0.0 0.0 0.0
1 1 1.390494969279 1.411429411105 1.433003859186   0.0 0.0 0.0 0.0
2 1 0.000000000000 0.000000000000 0.000000000000   0.0 0.0 0.0 0.0
