 #
 
           2  atoms
           1  atom types
 
      0.000000000000       2.866554335957  xlo xhi
      0.000000000000       2.866437724573  ylo yhi
      0.000000000000       2.866323193410  zlo zhi
      0.025855988366       0.025855988366       0.025623812720  xy xz yz
 
Masses
 
            1   55.84500000             # Fe
 
Atoms # atomic
 
         1    1        1.459133156344       1.446030768646       1.433161596705
         2    1        0.000000000000       0.000000000000       0.000000000000
