#

2 atoms
1 atom types

0.000000000000 2.866522088351 xlo xhi
0.000000000000 2.866470647019 ylo yhi
0.000000000000 2.866418584674 zlo zhi
-0.017173024777 -0.017173024777 -0.017276216548 xy xz yz

Masses

1 55.84500000 # Fe

Atoms # atomic
  0.0 0.0 0.0 0.0
1 1 1.416088019399 1.424597215236 1.433209292337   0.0 0.0 0.0 0.0
2 1 0.000000000000 0.000000000000 0.000000000000   0.0 0.0 0.0 0.0
