#

2 atoms
1 atom types

0.000000000000 2.866728466777 xlo xhi
0.000000000000 2.866259981220 ylo yhi
0.000000000000 2.865808060959 zlo zhi
0.051824919531 0.051824919531 0.050896342544 xy xz yz

Masses

1 55.84500000 # Fe

Atoms # atomic
  0.0 0.0 0.0 0.0
1 1 1.485189152920 1.458578161882 1.432904030480   0.0 0.0 0.0 0.0
2 1 0.000000000000 0.000000000000 0.000000000000   0.0 0.0 0.0 0.0
