# Fe2

2 atoms
1 atom types

0.000000000000 2.856872113767 xlo xhi
0.000000000000 2.856872113767 ylo yhi
0.000000000000 2.856872113767 zlo zhi

Masses

1 55.84500000 # Fe

Atoms # atomic

1 1 0.000000000000 0.000000000000 0.000000000000   0.0 0.0 0.0 0.0
2 1 1.428436056883 1.428436056883 1.428436056883   0.0 0.0 0.0 0.0
