#

2 atoms
1 atom types

0.000000000000 2.866530059512 xlo xhi
0.000000000000 2.866324928026 ylo yhi
0.000000000000 2.866114813862 zlo zhi
-0.034292696916 -0.034292696916 -0.034705428760 xy xz yz

Masses

1 55.84500000 # Fe

Atoms # atomic
  0.0 0.0 0.0 0.0
1 1 1.398972332840 1.415809749633 1.433057406931   0.0 0.0 0.0 0.0
2 1 0.000000000000 0.000000000000 0.000000000000   0.0 0.0 0.0 0.0
