#

2 atoms
1 atom types

0.000000000000 2.866659041154 xlo xhi
0.000000000000 2.866198924766 ylo yhi
0.000000000000 2.865721942660 zlo zhi
-0.051359340906 -0.051359340906 -0.052287892358 xy xz yz

Masses

1 55.84500000 # Fe

Atoms # atomic
  0.0 0.0 0.0 0.0
1 1 1.381970179671 1.406955516204 1.432860971330   0.0 0.0 0.0 0.0
2 1 0.000000000000 0.000000000000 0.000000000000   0.0 0.0 0.0 0.0
