#

2 atoms
1 atom types

0.000000000000 2.866659041154 xlo xhi
0.000000000000 2.866190566943 ylo yhi
0.000000000000 2.865738657628 zlo zhi
0.051823664410 0.051823664410 0.050895109912 xy xz yz

Masses

1 55.84500000 # Fe

Atoms # atomic
  0.0 0.0 0.0 0.0
1 1 1.485153184986 1.458542838428 1.432869328814   0.0 0.0 0.0 0.0
2 1 0.000000000000 0.000000000000 0.000000000000   0.0 0.0 0.0 0.0
