#

2 atoms
1 atom types

0.000000000000 2.866588101969 xlo xhi
0.000000000000 2.866268079113 ylo yhi
0.000000000000 2.865938310206 zlo zhi
-0.042832756222 -0.042832756222 -0.043477620001 xy xz yz

Masses

1 55.84500000 # Fe

Atoms # atomic
  0.0 0.0 0.0 0.0
1 1 1.390461294763 1.411395229556 1.432969155103   0.0 0.0 0.0 0.0
2 1 0.000000000000 0.000000000000 0.000000000000   0.0 0.0 0.0 0.0
