# Fe2

2 atoms
1 atom types

0.000000000000 2.847386314733 xlo xhi
0.000000000000 2.847386314733 ylo yhi
0.000000000000 2.847386314733 zlo zhi

Masses

1 55.84500000 # Fe

Atoms # atomic

1 1 0.000000000000 0.000000000000 0.000000000000   0.0 0.0 0.0 0.0
2 1 1.423693157367 1.423693157367 1.423693157367   0.0 0.0 0.0 0.0
