#

2 atoms
1 atom types

0.000000000000 2.866554335957 xlo xhi
0.000000000000 2.866438769390 ylo yhi
0.000000000000 2.866321103798 zlo zhi
-0.025739897628 -0.025739897628 -0.025972073179 xy xz yz

Masses

1 55.84500000 # Fe

Atoms # atomic
  0.0 0.0 0.0 0.0
1 1 1.407537270350 1.420233348105 1.433160551899   0.0 0.0 0.0 0.0
2 1 0.000000000000 0.000000000000 0.000000000000   0.0 0.0 0.0 0.0
