#

2 atoms
1 atom types

0.000000000000 2.849228359400 xlo xhi
0.000000000000 2.849228359400 ylo yhi
0.000000000000 2.866426870000 zlo zhi

Masses

1 55.84500000 # Fe

Atoms # atomic

1 1 1.424614179700 1.424614179700 1.433213435000   0.0 0.0 0.0 0.0
2 1 0.000000000000 0.000000000000 0.000000000000   0.0 0.0 0.0 0.0
