#

2 atoms
1 atom types

0.000000000000 2.866452667726 xlo xhi
0.000000000000 2.866401227640 ylo yhi
0.000000000000 2.866349166555 zlo zhi
-0.017172609005 -0.017172609005 -0.017275798278 xy xz yz

Masses

1 55.84500000 # Fe

Atoms # atomic
  0.0 0.0 0.0 0.0
1 1 1.416053724858 1.424562714681 1.433174583277   0.0 0.0 0.0 0.0
2 1 0.000000000000 0.000000000000 0.000000000000   0.0 0.0 0.0 0.0
