#

2 atoms
1 atom types

0.000000000000 2.866484914552 xlo xhi
0.000000000000 2.866369350782 ylo yhi
0.000000000000 2.866251688038 zlo zhi
-0.025739274446 -0.025739274446 -0.025971444377 xy xz yz

Masses

1 55.84500000 # Fe

Atoms # atomic
  0.0 0.0 0.0 0.0
1 1 1.407503182830 1.420198953202 1.433125844019   0.0 0.0 0.0 0.0
2 1 0.000000000000 0.000000000000 0.000000000000   0.0 0.0 0.0 0.0
