 #
 
           2  atoms
           1  atom types
 
      0.000000000000       2.909423232000  xlo xhi
      0.000000000000       2.909423232000  ylo yhi
      0.000000000000       2.866426870000  zlo zhi
 
Masses
 
            1   55.84500000             # Fe
 
Atoms # atomic
 
         1    1        1.454711616000       1.454711616000       1.433213435000
         2    1        0.000000000000       0.000000000000       0.000000000000
