 #
 
           2  atoms
           1  atom types
 
      0.000000000000       2.909493693300  xlo xhi
      0.000000000000       2.909493693300  ylo yhi
      0.000000000000       2.866496290000  zlo zhi
 
Masses
 
            1   55.84500000             # Fe
 
Atoms # atomic
 
         1    1        1.454746846650       1.454746846650       1.433248145000
         2    1        0.000000000000       0.000000000000       0.000000000000
