 #
 
           2  atoms
           1  atom types
 
      0.000000000000       2.918093242400  xlo xhi
      0.000000000000       2.918093242400  ylo yhi
      0.000000000000       2.918093242400  zlo zhi
 
Masses
 
            1   55.84500000             # Fe
 
Atoms # atomic
 
         1    1        1.459046621200       1.459046621200       1.459046621200
         2    1        0.000000000000       0.000000000000       0.000000000000
