#

2 atoms
1 atom types

0.000000000000 2.883625551500 xlo xhi
0.000000000000 2.883625551500 ylo yhi
0.000000000000 2.883625551500 zlo zhi

Masses

1 55.84500000 # Fe

Atoms # atomic

1 1 1.441812775750 1.441812775750 1.441812775750   0.0 0.0 0.0 0.0
2 1 0.000000000000 0.000000000000 0.000000000000   0.0 0.0 0.0 0.0
