
     Program PWSCF v.7.1 starts on 11Nov2022 at 16:27:32 

     This program is part of the open-source Quantum ESPRESSO suite
     for quantum simulation of materials; please cite
         "P. Giannozzi et al., J. Phys.:Condens. Matter 21 395502 (2009);
         "P. Giannozzi et al., J. Phys.:Condens. Matter 29 465901 (2017);
         "P. Giannozzi et al., J. Chem. Phys. 152 154105 (2020);
          URL http://www.quantum-espresso.org", 
     in publications or presentations arising from this work. More details at
     http://www.quantum-espresso.org/quote

     Parallel version (MPI & OpenMP), running on      36 processor cores
     Number of MPI processes:                36
     Threads/MPI process:                     1

     MPI processes distributed on     1 nodes
     180082 MiB available memory on the printing compute node when the environment starts
 
     Waiting for input...
     Reading input from standard input
Warning: card &CELL ignored
Warning: card / ignored

     Current dimensions of program PWSCF are:
     Max number of different atomic species (ntypx) = 10
     Max number of k-points (npk) =  40000
     Max angular momentum in pseudopotentials (lmaxx) =  4
     file Fe.pbesol-spn-kjpaw_psl.1.0.0.UPF: wavefunction(s)  3P 3D renormalized
     Found identity + (  0.5000  0.5000  0.5000) symmetry
     This is a supercell, fractional translations are disabled
     Message from routine setup:
     using ibrav=0 with symmetry is DISCOURAGED, use correct ibrav instead
 
     K-points division:     npool     =       3
     R & G space division:  proc/nbgrp/npool/nimage =      12
     Subspace diagonalization in iterative solution of the eigenvalue problem:
     a serial algorithm will be used

 
     Parallelization info
     --------------------
     sticks:   dense  smooth     PW     G-vecs:    dense   smooth      PW
     Min          90      45     14                 2236      787     144
     Max          91      46     15                 2241      790     147
     Sum        1085     545    177                26865     9459    1743
 
     Using Slab Decomposition
 

     Title: 
     # Fe2                                                                      


     bravais-lattice index     =            0
     lattice parameter (alat)  =       5.3252  a.u.
     unit-cell volume          =     151.0067 (a.u.)^3
     number of atoms/cell      =            2
     number of atomic types    =            1
     number of electrons       =        32.00
     number of Kohn-Sham states=           20
     kinetic-energy cutoff     =      60.0000  Ry
     charge density cutoff     =     480.0000  Ry
     scf convergence threshold =      1.0E-06
     mixing beta               =       0.7000
     number of iterations used =            8  plain     mixing
     Exchange-correlation= SLA  PW   PSX  PSC
                           (   1   4  10   8   0   0   0)

     celldm(1)=   5.325152  celldm(2)=   0.000000  celldm(3)=   0.000000
     celldm(4)=   0.000000  celldm(5)=   0.000000  celldm(6)=   0.000000

     crystal axes: (cart. coord. in units of alat)
               a(1) = (   1.000000   0.000000   0.000000 )  
               a(2) = (   0.000000   1.000000   0.000000 )  
               a(3) = (   0.000000   0.000000   1.000000 )  

     reciprocal axes: (cart. coord. in units 2 pi/alat)
               b(1) = (  1.000000  0.000000  0.000000 )  
               b(2) = (  0.000000  1.000000  0.000000 )  
               b(3) = (  0.000000  0.000000  1.000000 )  


     PseudoPot. # 1 for Fe read from file:
     /home/nie0061/qe/pseudo/Fe.pbesol-spn-kjpaw_psl.1.0.0.UPF
     MD5 check sum: e30d5f36a6f0cb983ee41abee56170da
     Pseudo is Projector augmented-wave + core cor, Zval = 16.0
     Generated using &quot;atomic&quot; code by A. Dal Corso  v.6.3
     Shape of augmentation charge: PSQ
     Using radial grid of 1191 points,  6 beta functions with: 
                l(1) =   0
                l(2) =   0
                l(3) =   1
                l(4) =   1
                l(5) =   2
                l(6) =   2
     Q(r) pseudized with 0 coefficients 


     atomic species   valence    mass     pseudopotential
        Fe            16.00    55.84500     Fe( 1.00)

     Starting magnetic structure 
     atomic species   magnetization
        Fe           0.700

     48 Sym. Ops., with inversion, found



   Cartesian axes

     site n.     atom                  positions (alat units)
         1           Fe  tau(   1) = (   0.0000000   0.0000000   0.0000000  )
         2           Fe  tau(   2) = (   0.5000000   0.5000000   0.5000000  )

     number of k points=    56  Gaussian smearing, width (Ry)=  0.0200
                       cart. coord. in units 2pi/alat
        k(    1) = (   0.0000000   0.0000000   0.0000000), wk =   0.0010000
        k(    2) = (   0.0000000   0.0000000   0.1000000), wk =   0.0060000
        k(    3) = (   0.0000000   0.0000000   0.2000000), wk =   0.0060000
        k(    4) = (   0.0000000   0.0000000   0.3000000), wk =   0.0060000
        k(    5) = (   0.0000000   0.0000000   0.4000000), wk =   0.0060000
        k(    6) = (   0.0000000   0.0000000  -0.5000000), wk =   0.0030000
        k(    7) = (   0.0000000   0.1000000   0.1000000), wk =   0.0120000
        k(    8) = (   0.0000000   0.1000000   0.2000000), wk =   0.0240000
        k(    9) = (   0.0000000   0.1000000   0.3000000), wk =   0.0240000
        k(   10) = (   0.0000000   0.1000000   0.4000000), wk =   0.0240000
        k(   11) = (   0.0000000   0.1000000  -0.5000000), wk =   0.0120000
        k(   12) = (   0.0000000   0.2000000   0.2000000), wk =   0.0120000
        k(   13) = (   0.0000000   0.2000000   0.3000000), wk =   0.0240000
        k(   14) = (   0.0000000   0.2000000   0.4000000), wk =   0.0240000
        k(   15) = (   0.0000000   0.2000000  -0.5000000), wk =   0.0120000
        k(   16) = (   0.0000000   0.3000000   0.3000000), wk =   0.0120000
        k(   17) = (   0.0000000   0.3000000   0.4000000), wk =   0.0240000
        k(   18) = (   0.0000000   0.3000000  -0.5000000), wk =   0.0120000
        k(   19) = (   0.0000000   0.4000000   0.4000000), wk =   0.0120000
        k(   20) = (   0.0000000   0.4000000  -0.5000000), wk =   0.0120000
        k(   21) = (   0.0000000  -0.5000000  -0.5000000), wk =   0.0030000
        k(   22) = (   0.1000000   0.1000000   0.1000000), wk =   0.0080000
        k(   23) = (   0.1000000   0.1000000   0.2000000), wk =   0.0240000
        k(   24) = (   0.1000000   0.1000000   0.3000000), wk =   0.0240000
        k(   25) = (   0.1000000   0.1000000   0.4000000), wk =   0.0240000
        k(   26) = (   0.1000000   0.1000000  -0.5000000), wk =   0.0120000
        k(   27) = (   0.1000000   0.2000000   0.2000000), wk =   0.0240000
        k(   28) = (   0.1000000   0.2000000   0.3000000), wk =   0.0480000
        k(   29) = (   0.1000000   0.2000000   0.4000000), wk =   0.0480000
        k(   30) = (   0.1000000   0.2000000  -0.5000000), wk =   0.0240000
        k(   31) = (   0.1000000   0.3000000   0.3000000), wk =   0.0240000
        k(   32) = (   0.1000000   0.3000000   0.4000000), wk =   0.0480000
        k(   33) = (   0.1000000   0.3000000  -0.5000000), wk =   0.0240000
        k(   34) = (   0.1000000   0.4000000   0.4000000), wk =   0.0240000
        k(   35) = (   0.1000000   0.4000000  -0.5000000), wk =   0.0240000
        k(   36) = (   0.1000000  -0.5000000  -0.5000000), wk =   0.0060000
        k(   37) = (   0.2000000   0.2000000   0.2000000), wk =   0.0080000
        k(   38) = (   0.2000000   0.2000000   0.3000000), wk =   0.0240000
        k(   39) = (   0.2000000   0.2000000   0.4000000), wk =   0.0240000
        k(   40) = (   0.2000000   0.2000000  -0.5000000), wk =   0.0120000
        k(   41) = (   0.2000000   0.3000000   0.3000000), wk =   0.0240000
        k(   42) = (   0.2000000   0.3000000   0.4000000), wk =   0.0480000
        k(   43) = (   0.2000000   0.3000000  -0.5000000), wk =   0.0240000
        k(   44) = (   0.2000000   0.4000000   0.4000000), wk =   0.0240000
        k(   45) = (   0.2000000   0.4000000  -0.5000000), wk =   0.0240000
        k(   46) = (   0.2000000  -0.5000000  -0.5000000), wk =   0.0060000
        k(   47) = (   0.3000000   0.3000000   0.3000000), wk =   0.0080000
        k(   48) = (   0.3000000   0.3000000   0.4000000), wk =   0.0240000
        k(   49) = (   0.3000000   0.3000000  -0.5000000), wk =   0.0120000
        k(   50) = (   0.3000000   0.4000000   0.4000000), wk =   0.0240000
        k(   51) = (   0.3000000   0.4000000  -0.5000000), wk =   0.0240000
        k(   52) = (   0.3000000  -0.5000000  -0.5000000), wk =   0.0060000
        k(   53) = (   0.4000000   0.4000000   0.4000000), wk =   0.0080000
        k(   54) = (   0.4000000   0.4000000  -0.5000000), wk =   0.0120000
        k(   55) = (   0.4000000  -0.5000000  -0.5000000), wk =   0.0060000
        k(   56) = (  -0.5000000  -0.5000000  -0.5000000), wk =   0.0010000

     Dense  grid:    26865 G-vectors     FFT dimensions: (  40,  40,  40)

     Smooth grid:     9459 G-vectors     FFT dimensions: (  27,  27,  27)

     Estimated max dynamical RAM per process >       7.46 MB

     Estimated total dynamical RAM >     242.36 MB

     Check: negative core charge=   -0.000002
     Generating pointlists ...
     new r_m :   0.3572 (alat units)  1.9023 (a.u.) for type    1

     Initial potential from superposition of free atoms

     starting charge      31.9992, renormalised to      32.0000
     Starting wfcs are   20 randomized atomic wfcs
     Checking if some PAW data can be deallocated... 

     total cpu time spent up to now is        0.4 secs

     Self-consistent Calculation

     iteration #  1     ecut=    60.00 Ry     beta= 0.70
     Davidson diagonalization with overlap
     ethr =  1.00E-02,  avg # of iterations =  3.3

     negative rho (up, down):  0.000E+00 5.810E-04

     total cpu time spent up to now is        0.8 secs

     total energy              =    -653.31020185 Ry
     estimated scf accuracy    <       3.08843275 Ry

     total magnetization       =     7.31 Bohr mag/cell
     absolute magnetization    =     7.46 Bohr mag/cell

     iteration #  2     ecut=    60.00 Ry     beta= 0.70
     Davidson diagonalization with overlap
     ethr =  9.65E-03,  avg # of iterations =  1.1

     negative rho (up, down):  0.000E+00 4.644E-04

     total cpu time spent up to now is        1.0 secs

     total energy              =    -653.68341085 Ry
     estimated scf accuracy    <       0.54085290 Ry

     total magnetization       =     6.03 Bohr mag/cell
     absolute magnetization    =     6.38 Bohr mag/cell

     iteration #  3     ecut=    60.00 Ry     beta= 0.70
     Davidson diagonalization with overlap
     ethr =  1.69E-03,  avg # of iterations =  3.0

     negative rho (up, down):  0.000E+00 5.358E-04

     total cpu time spent up to now is        1.4 secs

     total energy              =    -653.71848745 Ry
     estimated scf accuracy    <       0.53992722 Ry

     total magnetization       =     4.68 Bohr mag/cell
     absolute magnetization    =     4.97 Bohr mag/cell

     iteration #  4     ecut=    60.00 Ry     beta= 0.70
     Davidson diagonalization with overlap
     ethr =  1.69E-03,  avg # of iterations =  2.3

     negative rho (up, down):  0.000E+00 5.016E-04

     total cpu time spent up to now is        1.8 secs

     total energy              =    -653.79673189 Ry
     estimated scf accuracy    <       0.03307072 Ry

     total magnetization       =     4.57 Bohr mag/cell
     absolute magnetization    =     4.86 Bohr mag/cell

     iteration #  5     ecut=    60.00 Ry     beta= 0.70
     Davidson diagonalization with overlap
     ethr =  1.03E-04,  avg # of iterations =  3.1

     negative rho (up, down):  0.000E+00 2.586E-04

     total cpu time spent up to now is        2.1 secs

     total energy              =    -653.80290434 Ry
     estimated scf accuracy    <       0.13808140 Ry

     total magnetization       =     4.50 Bohr mag/cell
     absolute magnetization    =     4.78 Bohr mag/cell

     iteration #  6     ecut=    60.00 Ry     beta= 0.70
     Davidson diagonalization with overlap
     ethr =  1.03E-04,  avg # of iterations =  1.8

     negative rho (up, down):  0.000E+00 2.154E-04

     total cpu time spent up to now is        2.4 secs

     total energy              =    -653.81130157 Ry
     estimated scf accuracy    <       0.00196306 Ry

     total magnetization       =     4.29 Bohr mag/cell
     absolute magnetization    =     4.51 Bohr mag/cell

     iteration #  7     ecut=    60.00 Ry     beta= 0.70
     Davidson diagonalization with overlap
     ethr =  6.13E-06,  avg # of iterations =  2.5

     negative rho (up, down):  0.000E+00 1.677E-04

     total cpu time spent up to now is        2.8 secs

     total energy              =    -653.81174400 Ry
     estimated scf accuracy    <       0.00007816 Ry

     total magnetization       =     4.29 Bohr mag/cell
     absolute magnetization    =     4.50 Bohr mag/cell

     iteration #  8     ecut=    60.00 Ry     beta= 0.70
     Davidson diagonalization with overlap
     ethr =  2.44E-07,  avg # of iterations =  2.9

     negative rho (up, down):  0.000E+00 1.717E-04

     total cpu time spent up to now is        3.2 secs

     total energy              =    -653.81179094 Ry
     estimated scf accuracy    <       0.00013953 Ry

     total magnetization       =     4.26 Bohr mag/cell
     absolute magnetization    =     4.45 Bohr mag/cell

     iteration #  9     ecut=    60.00 Ry     beta= 0.70
     Davidson diagonalization with overlap
     ethr =  2.44E-07,  avg # of iterations =  2.7

     negative rho (up, down):  0.000E+00 1.719E-04

     total cpu time spent up to now is        3.5 secs

     total energy              =    -653.81181159 Ry
     estimated scf accuracy    <       0.00000131 Ry

     total magnetization       =     4.26 Bohr mag/cell
     absolute magnetization    =     4.46 Bohr mag/cell

     iteration # 10     ecut=    60.00 Ry     beta= 0.70
     Davidson diagonalization with overlap
     ethr =  4.10E-09,  avg # of iterations =  2.7

     negative rho (up, down):  0.000E+00 1.723E-04
 
     Magnetic moment per site  (integrated on atomic sphere of radius R)
     atom   1 (R=0.357)  charge= 14.3758  magn=  2.1674
     atom   2 (R=0.357)  charge= 14.3754  magn=  2.1655

     total cpu time spent up to now is        3.9 secs

     End of self-consistent calculation

     Number of k-points >= 100: set verbosity='high' to print the bands.

     the Fermi energy is    18.5255 ev

!    total energy              =    -653.81181208 Ry
     total all-electron energy =     -5086.463231 Ry
     estimated scf accuracy    <       0.00000025 Ry
     smearing contrib. (-TS)   =      -0.00481016 Ry
     internal energy E=F+TS    =    -653.80700191 Ry

     The total energy is F=E-TS. E is the sum of the following terms:
     one-electron contribution =    -216.16632044 Ry
     hartree contribution      =     128.57220385 Ry
     xc contribution           =     -54.87075600 Ry
     ewald contribution        =    -349.90313193 Ry
     one-center paw contrib.   =    -161.43899739 Ry

     total magnetization       =     4.26 Bohr mag/cell
     absolute magnetization    =     4.45 Bohr mag/cell

     convergence has been achieved in  10 iterations

     Writing all to output data dir ./pwscf.save/
 
     init_run     :      0.21s CPU      0.25s WALL (       1 calls)
     electrons    :      3.39s CPU      3.54s WALL (       1 calls)

     Called by init_run:
     wfcinit      :      0.06s CPU      0.06s WALL (       1 calls)
     potinit      :      0.08s CPU      0.11s WALL (       1 calls)
     hinit0       :      0.05s CPU      0.05s WALL (       1 calls)

     Called by electrons:
     c_bands      :      2.12s CPU      2.22s WALL (      10 calls)
     sum_band     :      0.34s CPU      0.36s WALL (      10 calls)
     v_of_rho     :      0.06s CPU      0.06s WALL (      11 calls)
     newd         :      0.03s CPU      0.03s WALL (      11 calls)
     PAW_pot      :      0.90s CPU      0.94s WALL (      11 calls)
     mix_rho      :      0.01s CPU      0.01s WALL (      10 calls)

     Called by c_bands:
     init_us_2    :      0.02s CPU      0.02s WALL (     798 calls)
     init_us_2:cp :      0.02s CPU      0.02s WALL (     798 calls)
     cegterg      :      1.78s CPU      1.87s WALL (     380 calls)

     Called by *egterg:
     cdiaghg      :      0.51s CPU      0.53s WALL (    1307 calls)
     h_psi        :      1.16s CPU      1.23s WALL (    1345 calls)
     s_psi        :      0.02s CPU      0.02s WALL (    1345 calls)
     g_psi        :      0.01s CPU      0.01s WALL (     927 calls)

     Called by h_psi:
     h_psi:calbec :      0.04s CPU      0.04s WALL (    1345 calls)
     vloc_psi     :      1.09s CPU      1.15s WALL (    1345 calls)
     add_vuspsi   :      0.02s CPU      0.02s WALL (    1345 calls)

     General routines
     calbec       :      0.05s CPU      0.06s WALL (    1725 calls)
     fft          :      0.02s CPU      0.02s WALL (     269 calls)
     ffts         :      0.00s CPU      0.00s WALL (      42 calls)
     fftw         :      1.16s CPU      1.22s WALL (   47156 calls)
     interpolate  :      0.00s CPU      0.00s WALL (      22 calls)
 
     Parallel routines
 
     PWSCF        :      3.74s CPU      4.04s WALL

 
   This run was terminated on:  16:27:36  11Nov2022            

=------------------------------------------------------------------------------=
   JOB DONE.
=------------------------------------------------------------------------------=
