 CRYSTAL
 PRIMVEC
2.7900990 .0000000 .0000000
-.0334800 2.7898981 .0000000
.0000000 .0000000 2.7900488
 PRIMCOORD
           2  1
  26  .0000000 .0000000 .0000000
  26  1.3783095 1.3949491 1.3950244
 
