 CRYSTAL
 PRIMVEC
2.7911926 .0000000 .0000000
.0000000 2.7911926 .0000000
.0000000 .0000000 2.7911926
 PRIMCOORD
           2  1
  26  .0000000 .0000000 .0000000
  26  1.3955963 1.3955963 1.3955963
 
