       N       E                     dE             d eps       ncg     rms          rms(c)
DAV:   1    -0.165523965524E+02   -0.16552E+02   -0.23800E-01******   0.199E+01
DAV:   2    -0.165524249294E+02   -0.28377E-04   -0.28378E-04******   0.148E-01
DAV:   3    -0.165524250541E+02   -0.12468E-06   -0.12484E-06******   0.968E-03
DAV:   4    -0.165524250570E+02   -0.29113E-08   -0.22487E-08******   0.115E-03
DAV:   5    -0.165524250570E+02   -0.34561E-10   -0.55944E-10******   0.173E-04
   1 F= -.16552425E+02 E0= -.16552425E+02  d E =0.000000E+00  mag=     0.0000     0.0000     4.3819
