       N       E                     dE             d eps       ncg     rms          rms(c)
DAV:   1    -0.165533866175E+02   -0.16553E+02   -0.23803E-01******   0.199E+01
DAV:   2    -0.165534152920E+02   -0.28674E-04   -0.28674E-04******   0.148E-01
DAV:   3    -0.165534154168E+02   -0.12473E-06   -0.12495E-06******   0.969E-03
DAV:   4    -0.165534154180E+02   -0.12178E-08   -0.22472E-08******   0.115E-03
DAV:   5    -0.165534154181E+02   -0.10368E-09   -0.55878E-10******   0.173E-04
   1 F= -.16553415E+02 E0= -.16553415E+02  d E =0.000000E+00  mag=     0.0000     0.0000     4.3802
