       N       E                     dE             d eps       ncg     rms          rms(c)
DAV:   1    -0.165542531703E+02   -0.16554E+02   -0.23823E-01******   0.199E+01
DAV:   2    -0.165542818711E+02   -0.28701E-04   -0.28703E-04******   0.148E-01
DAV:   3    -0.165542819979E+02   -0.12679E-06   -0.12591E-06******   0.972E-03
DAV:   4    -0.165542819997E+02   -0.18845E-08   -0.22776E-08******   0.116E-03
DAV:   5    -0.165542820006E+02   -0.86402E-09   -0.56884E-10******   0.175E-04
   1 F= -.16554282E+02 E0= -.16554282E+02  d E =0.000000E+00  mag=     0.0000     0.0000     4.3907
