       N       E                     dE             d eps       ncg     rms          rms(c)
DAV:   1    -0.165540668302E+02   -0.16554E+02   -0.23859E-01******   0.199E+01
DAV:   2    -0.165540956424E+02   -0.28812E-04   -0.28814E-04******   0.149E-01
DAV:   3    -0.165540957706E+02   -0.12820E-06   -0.12826E-06******   0.981E-03
DAV:   4    -0.165540957735E+02   -0.29504E-08   -0.23430E-08******   0.118E-03
DAV:   5    -0.165540957736E+02   -0.72760E-10   -0.59028E-10******   0.178E-04
   1 F= -.16554096E+02 E0= -.16554096E+02  d E =0.000000E+00  mag=     0.0000     0.0000     4.4125
