       N       E                     dE             d eps       ncg     rms          rms(c)
DAV:   1    -0.165542555780E+02   -0.16554E+02   -0.23826E-01******   0.199E+01
DAV:   2    -0.165542841566E+02   -0.28579E-04   -0.28580E-04******   0.148E-01
DAV:   3    -0.165542842814E+02   -0.12480E-06   -0.12586E-06******   0.970E-03
DAV:   4    -0.165542842837E+02   -0.23274E-08   -0.22697E-08******   0.116E-03
DAV:   5    -0.165542842841E+02   -0.37744E-09   -0.56390E-10******   0.173E-04
   1 F= -.16554284E+02 E0= -.16554284E+02  d E =0.000000E+00  mag=     0.0000     0.0000     4.3907
