       N       E                     dE             d eps       ncg     rms          rms(c)
DAV:   1    -0.165493519562E+02   -0.16549E+02   -0.23746E-01******   0.199E+01
DAV:   2    -0.165493799278E+02   -0.27972E-04   -0.27972E-04******   0.147E-01
DAV:   3    -0.165493800497E+02   -0.12198E-06   -0.12152E-06******   0.956E-03
DAV:   4    -0.165493800520E+02   -0.22828E-08   -0.21580E-08******   0.113E-03
DAV:   5    -0.165493800517E+02    0.31287E-09   -0.53062E-10******   0.169E-04
   1 F= -.16549380E+02 E0= -.16549380E+02  d E =0.000000E+00  mag=     0.0000     0.0000     4.3507
