       N       E                     dE             d eps       ncg     rms          rms(c)
DAV:   1    -0.165543628446E+02   -0.16554E+02   -0.23839E-01******   0.199E+01
DAV:   2    -0.165543916796E+02   -0.28835E-04   -0.28837E-04******   0.149E-01
DAV:   3    -0.165543918075E+02   -0.12785E-06   -0.12724E-06******   0.977E-03
DAV:   4    -0.165543918081E+02   -0.64938E-09   -0.23120E-08******   0.117E-03
DAV:   5    -0.165543918087E+02   -0.54206E-09   -0.57943E-10******   0.176E-04
   1 F= -.16554392E+02 E0= -.16554392E+02  d E =0.000000E+00  mag=     0.0000     0.0000     4.4016
