       N       E                     dE             d eps       ncg     rms          rms(c)
DAV:   1    -0.165537128257E+02   -0.16554E+02   -0.23802E-01******   0.199E+01
DAV:   2    -0.165537412725E+02   -0.28447E-04   -0.28448E-04******   0.148E-01
DAV:   3    -0.165537413975E+02   -0.12500E-06   -0.12512E-06******   0.967E-03
DAV:   4    -0.165537413993E+02   -0.18490E-08   -0.22430E-08******   0.115E-03
DAV:   5    -0.165537414011E+02   -0.17835E-08   -0.55460E-10******   0.172E-04
DAV:   6    -0.165537413996E+02    0.14579E-08   -0.14888E-11******   0.323E-05
DAV:   7    -0.165537414000E+02   -0.39108E-09   -0.15902E-12******   0.160E-05
   1 F= -.16553741E+02 E0= -.16553741E+02  d E =0.000000E+00  mag=     0.0000     0.0000     4.3797
