       N       E                     dE             d eps       ncg     rms          rms(c)
DAV:   1    -0.165533866011E+02   -0.16553E+02   -0.23803E-01******   0.199E+01
DAV:   2    -0.165534152784E+02   -0.28677E-04   -0.28679E-04******   0.148E-01
DAV:   3    -0.165534154048E+02   -0.12638E-06   -0.12496E-06******   0.969E-03
DAV:   4    -0.165534154068E+02   -0.19545E-08   -0.22472E-08******   0.115E-03
DAV:   5    -0.165534154062E+02    0.54752E-09   -0.55880E-10******   0.173E-04
   1 F= -.16553415E+02 E0= -.16553415E+02  d E =0.000000E+00  mag=     0.0000     0.0000     4.3802
