       N       E                     dE             d eps       ncg     rms          rms(c)
DAV:   1    -0.165507733364E+02   -0.16551E+02   -0.23799E-01******   0.199E+01
DAV:   2    -0.165508020864E+02   -0.28750E-04   -0.28750E-04******   0.148E-01
DAV:   3    -0.165508022111E+02   -0.12473E-06   -0.12515E-06******   0.969E-03
DAV:   4    -0.165508022125E+02   -0.14206E-08   -0.22483E-08******   0.115E-03
DAV:   5    -0.165508022129E+02   -0.32469E-09   -0.55861E-10******   0.173E-04
   1 F= -.16550802E+02 E0= -.16550802E+02  d E =0.000000E+00  mag=     0.0000     0.0000     4.3846
