       N       E                     dE             d eps       ncg     rms          rms(c)
DAV:   1    -0.165527132247E+02   -0.16553E+02   -0.23782E-01******   0.199E+01
DAV:   2    -0.165527415380E+02   -0.28313E-04   -0.28314E-04******   0.147E-01
DAV:   3    -0.165527416624E+02   -0.12443E-06   -0.12396E-06******   0.963E-03
DAV:   4    -0.165527416635E+02   -0.11323E-08   -0.22122E-08******   0.114E-03
DAV:   5    -0.165527416644E+02   -0.81218E-09   -0.54491E-10******   0.171E-04
   1 F= -.16552742E+02 E0= -.16552742E+02  d E =0.000000E+00  mag=     0.0000     0.0000     4.3698
