       N       E                     dE             d eps       ncg     rms          rms(c)
DAV:   1    -0.165507594344E+02   -0.16551E+02   -0.23797E-01******   0.199E+01
DAV:   2    -0.165507878072E+02   -0.28373E-04   -0.28375E-04******   0.147E-01
DAV:   3    -0.165507879324E+02   -0.12523E-06   -0.12479E-06******   0.967E-03
DAV:   4    -0.165507879343E+02   -0.19127E-08   -0.22515E-08******   0.115E-03
DAV:   5    -0.165507879342E+02    0.83674E-10   -0.56083E-10******   0.173E-04
   1 F= -.16550788E+02 E0= -.16550788E+02  d E =0.000000E+00  mag=     0.0000     0.0000     4.3846
