
     Program PWSCF v.7.1 starts on 14Nov2022 at 12:17:33 

     This program is part of the open-source Quantum ESPRESSO suite
     for quantum simulation of materials; please cite
         "P. Giannozzi et al., J. Phys.:Condens. Matter 21 395502 (2009);
         "P. Giannozzi et al., J. Phys.:Condens. Matter 29 465901 (2017);
         "P. Giannozzi et al., J. Chem. Phys. 152 154105 (2020);
          URL http://www.quantum-espresso.org", 
     in publications or presentations arising from this work. More details at
     http://www.quantum-espresso.org/quote

     Parallel version (MPI & OpenMP), running on      36 processor cores
     Number of MPI processes:                36
     Threads/MPI process:                     1

     MPI processes distributed on     1 nodes
     180085 MiB available memory on the printing compute node when the environment starts
 
     Waiting for input...
     Reading input from standard input
Warning: card &CELL ignored
Warning: card / ignored

     Current dimensions of program PWSCF are:
     Max number of different atomic species (ntypx) = 10
     Max number of k-points (npk) =  40000
     Max angular momentum in pseudopotentials (lmaxx) =  4
     file Fe.pbesol-spn-kjpaw_psl.1.0.0.UPF: wavefunction(s)  3P 3D renormalized
     Found identity + (  0.5000  0.5000  0.5000) symmetry
     This is a supercell, fractional translations are disabled
     Message from routine setup:
     using ibrav=0 with symmetry is DISCOURAGED, use correct ibrav instead
 
     K-points division:     npool     =       3
     R & G space division:  proc/nbgrp/npool/nimage =      12
     Subspace diagonalization in iterative solution of the eigenvalue problem:
     a serial algorithm will be used

 
     Parallelization info
     --------------------
     sticks:   dense  smooth     PW     G-vecs:    dense   smooth      PW
     Min          88      43     14                 2168      762     142
     Max          89      44     15                 2171      764     144
     Sum        1063     525    177                26037     9159    1719
 
     Using Slab Decomposition
 

     Title: 
     #                                                                          


     bravais-lattice index     =            0
     lattice parameter (alat)  =       5.2726  a.u.
     unit-cell volume          =     146.5497 (a.u.)^3
     number of atoms/cell      =            2
     number of atomic types    =            1
     number of electrons       =        32.00
     number of Kohn-Sham states=           20
     kinetic-energy cutoff     =      60.0000  Ry
     charge density cutoff     =     480.0000  Ry
     scf convergence threshold =      1.0E-06
     mixing beta               =       0.7000
     number of iterations used =            8  plain     mixing
     Exchange-correlation= SLA  PW   PSX  PSC
                           (   1   4  10   8   0   0   0)

     celldm(1)=   5.272618  celldm(2)=   0.000000  celldm(3)=   0.000000
     celldm(4)=   0.000000  celldm(5)=   0.000000  celldm(6)=   0.000000

     crystal axes: (cart. coord. in units of alat)
               a(1) = (   0.999964  -0.006000  -0.006000 )  
               a(2) = (  -0.006000   0.999964  -0.006000 )  
               a(3) = (  -0.006000  -0.006000   0.999964 )  

     reciprocal axes: (cart. coord. in units 2 pi/alat)
               b(1) = (  1.000108  0.006037  0.006037 )  
               b(2) = (  0.006037  1.000108  0.006037 )  
               b(3) = (  0.006037  0.006037  1.000108 )  


     PseudoPot. # 1 for Fe read from file:
     /home/nie0061/qe/pseudo/Fe.pbesol-spn-kjpaw_psl.1.0.0.UPF
     MD5 check sum: e30d5f36a6f0cb983ee41abee56170da
     Pseudo is Projector augmented-wave + core cor, Zval = 16.0
     Generated using &quot;atomic&quot; code by A. Dal Corso  v.6.3
     Shape of augmentation charge: PSQ
     Using radial grid of 1191 points,  6 beta functions with: 
                l(1) =   0
                l(2) =   0
                l(3) =   1
                l(4) =   1
                l(5) =   2
                l(6) =   2
     Q(r) pseudized with 0 coefficients 


     atomic species   valence    mass     pseudopotential
        Fe            16.00    55.84500     Fe( 1.00)

     Starting magnetic structure 
     atomic species   magnetization
        Fe           0.700

     12 Sym. Ops., with inversion, found



   Cartesian axes

     site n.     atom                  positions (alat units)
         1           Fe  tau(   1) = (   0.0000000   0.0000000   0.0000000  )
         2           Fe  tau(   2) = (   0.4939822   0.4939822   0.4939822  )

     number of k points=   116  Gaussian smearing, width (Ry)=  0.0200

     Number of k-points >= 100: set verbosity='high' to print them.

     Dense  grid:    26037 G-vectors     FFT dimensions: (  40,  40,  40)

     Smooth grid:     9159 G-vectors     FFT dimensions: (  25,  25,  25)

     Estimated max dynamical RAM per process >       8.47 MB

     Estimated total dynamical RAM >     279.36 MB

     Check: negative core charge=   -0.000003
     Generating pointlists ...
     new r_m :   0.3529 (alat units)  1.8609 (a.u.) for type    1

     Initial potential from superposition of free atoms

     starting charge      31.9992, renormalised to      32.0000
     Starting wfcs are   20 randomized atomic wfcs
     Checking if some PAW data can be deallocated... 

     total cpu time spent up to now is        0.4 secs

     Self-consistent Calculation

     iteration #  1     ecut=    60.00 Ry     beta= 0.70
     Davidson diagonalization with overlap
     ethr =  1.00E-02,  avg # of iterations =  3.7

     negative rho (up, down):  0.000E+00 5.708E-04

     total cpu time spent up to now is        1.1 secs

     total energy              =    -653.28009946 Ry
     estimated scf accuracy    <       3.08649083 Ry

     total magnetization       =     7.40 Bohr mag/cell
     absolute magnetization    =     7.49 Bohr mag/cell

     iteration #  2     ecut=    60.00 Ry     beta= 0.70
     Davidson diagonalization with overlap
     ethr =  9.65E-03,  avg # of iterations =  1.1

     negative rho (up, down):  0.000E+00 4.435E-04

     total cpu time spent up to now is        1.6 secs

     total energy              =    -653.67864510 Ry
     estimated scf accuracy    <       0.55904290 Ry

     total magnetization       =     5.97 Bohr mag/cell
     absolute magnetization    =     6.30 Bohr mag/cell

     iteration #  3     ecut=    60.00 Ry     beta= 0.70
     Davidson diagonalization with overlap
     ethr =  1.75E-03,  avg # of iterations =  2.8

     negative rho (up, down):  0.000E+00 5.122E-04

     total cpu time spent up to now is        2.3 secs

     total energy              =    -653.71797097 Ry
     estimated scf accuracy    <       0.56016778 Ry

     total magnetization       =     4.57 Bohr mag/cell
     absolute magnetization    =     4.84 Bohr mag/cell

     iteration #  4     ecut=    60.00 Ry     beta= 0.70
     Davidson diagonalization with overlap
     ethr =  1.75E-03,  avg # of iterations =  2.3

     negative rho (up, down):  0.000E+00 3.041E-04

     total cpu time spent up to now is        2.8 secs

     total energy              =    -653.80376759 Ry
     estimated scf accuracy    <       0.00694602 Ry

     total magnetization       =     4.45 Bohr mag/cell
     absolute magnetization    =     4.73 Bohr mag/cell

     iteration #  5     ecut=    60.00 Ry     beta= 0.70
     Davidson diagonalization with overlap
     ethr =  2.17E-05,  avg # of iterations =  4.7

     negative rho (up, down):  0.000E+00 2.780E-04

     total cpu time spent up to now is        3.6 secs

     total energy              =    -653.80676481 Ry
     estimated scf accuracy    <       0.15137915 Ry

     total magnetization       =     4.25 Bohr mag/cell
     absolute magnetization    =     4.45 Bohr mag/cell

     iteration #  6     ecut=    60.00 Ry     beta= 0.70
     Davidson diagonalization with overlap
     ethr =  2.17E-05,  avg # of iterations =  2.5

     negative rho (up, down):  0.000E+00 1.706E-04

     total cpu time spent up to now is        4.2 secs

     total energy              =    -653.80987192 Ry
     estimated scf accuracy    <       0.00819881 Ry

     total magnetization       =     4.26 Bohr mag/cell
     absolute magnetization    =     4.47 Bohr mag/cell

     iteration #  7     ecut=    60.00 Ry     beta= 0.70
     Davidson diagonalization with overlap
     ethr =  2.17E-05,  avg # of iterations =  2.8

     negative rho (up, down):  0.000E+00 1.549E-04

     total cpu time spent up to now is        4.8 secs

     total energy              =    -653.81228380 Ry
     estimated scf accuracy    <       0.00103683 Ry

     total magnetization       =     4.16 Bohr mag/cell
     absolute magnetization    =     4.34 Bohr mag/cell

     iteration #  8     ecut=    60.00 Ry     beta= 0.70
     Davidson diagonalization with overlap
     ethr =  3.24E-06,  avg # of iterations =  2.3

     negative rho (up, down):  0.000E+00 1.485E-04

     total cpu time spent up to now is        5.4 secs

     total energy              =    -653.81245755 Ry
     estimated scf accuracy    <       0.00001927 Ry

     total magnetization       =     4.18 Bohr mag/cell
     absolute magnetization    =     4.35 Bohr mag/cell

     iteration #  9     ecut=    60.00 Ry     beta= 0.70
     Davidson diagonalization with overlap
     ethr =  6.02E-08,  avg # of iterations =  2.4

     negative rho (up, down):  0.000E+00 1.543E-04

     total cpu time spent up to now is        6.0 secs

     total energy              =    -653.81245915 Ry
     estimated scf accuracy    <       0.00000754 Ry

     total magnetization       =     4.17 Bohr mag/cell
     absolute magnetization    =     4.35 Bohr mag/cell

     iteration # 10     ecut=    60.00 Ry     beta= 0.70
     Davidson diagonalization with overlap
     ethr =  2.36E-08,  avg # of iterations =  3.3

     negative rho (up, down):  0.000E+00 1.536E-04

     total cpu time spent up to now is        6.6 secs

     total energy              =    -653.81246215 Ry
     estimated scf accuracy    <       0.00000378 Ry

     total magnetization       =     4.17 Bohr mag/cell
     absolute magnetization    =     4.35 Bohr mag/cell

     iteration # 11     ecut=    60.00 Ry     beta= 0.70
     Davidson diagonalization with overlap
     ethr =  1.18E-08,  avg # of iterations =  1.8

     negative rho (up, down):  0.000E+00 1.527E-04
 
     Magnetic moment per site  (integrated on atomic sphere of radius R)
     atom   1 (R=0.353)  charge= 14.2790  magn=  2.1134
     atom   2 (R=0.353)  charge= 14.2788  magn=  2.1130

     total cpu time spent up to now is        7.1 secs

     End of self-consistent calculation

     Number of k-points >= 100: set verbosity='high' to print the bands.

     the Fermi energy is    19.2345 ev

!    total energy              =    -653.81246202 Ry
     total all-electron energy =     -5086.463881 Ry
     estimated scf accuracy    <       0.00000051 Ry
     smearing contrib. (-TS)   =      -0.00470921 Ry
     internal energy E=F+TS    =    -653.80775281 Ry

     The total energy is F=E-TS. E is the sum of the following terms:
     one-electron contribution =    -210.65199090 Ry
     hartree contribution      =     126.59679631 Ry
     xc contribution           =     -54.91375968 Ry
     ewald contribution        =    -353.39893127 Ry
     one-center paw contrib.   =    -161.43986727 Ry

     total magnetization       =     4.17 Bohr mag/cell
     absolute magnetization    =     4.35 Bohr mag/cell

     convergence has been achieved in  11 iterations

     Writing all to output data dir ./pwscf.save/
 
     init_run     :      0.30s CPU      0.34s WALL (       1 calls)
     electrons    :      6.41s CPU      6.69s WALL (       1 calls)

     Called by init_run:
     wfcinit      :      0.11s CPU      0.12s WALL (       1 calls)
     potinit      :      0.10s CPU      0.12s WALL (       1 calls)
     hinit0       :      0.07s CPU      0.07s WALL (       1 calls)

     Called by electrons:
     c_bands      :      4.76s CPU      4.98s WALL (      11 calls)
     sum_band     :      0.65s CPU      0.68s WALL (      11 calls)
     v_of_rho     :      0.07s CPU      0.07s WALL (      12 calls)
     newd         :      0.03s CPU      0.03s WALL (      12 calls)
     PAW_pot      :      0.98s CPU      1.01s WALL (      12 calls)
     mix_rho      :      0.01s CPU      0.01s WALL (      11 calls)

     Called by c_bands:
     init_us_2    :      0.05s CPU      0.05s WALL (    1794 calls)
     init_us_2:cp :      0.05s CPU      0.05s WALL (    1794 calls)
     cegterg      :      4.00s CPU      4.19s WALL (     858 calls)

     Called by *egterg:
     cdiaghg      :      1.23s CPU      1.28s WALL (    3149 calls)
     h_psi        :      2.48s CPU      2.61s WALL (    3227 calls)
     s_psi        :      0.04s CPU      0.04s WALL (    3227 calls)
     g_psi        :      0.01s CPU      0.01s WALL (    2291 calls)

     Called by h_psi:
     h_psi:calbec :      0.09s CPU      0.09s WALL (    3227 calls)
     vloc_psi     :      2.33s CPU      2.45s WALL (    3227 calls)
     add_vuspsi   :      0.04s CPU      0.05s WALL (    3227 calls)

     General routines
     calbec       :      0.11s CPU      0.12s WALL (    4085 calls)
     fft          :      0.02s CPU      0.03s WALL (     294 calls)
     ffts         :      0.00s CPU      0.00s WALL (      46 calls)
     fftw         :      2.48s CPU      2.61s WALL (  105434 calls)
     interpolate  :      0.00s CPU      0.00s WALL (      24 calls)
 
     Parallel routines
 
     PWSCF        :      6.89s CPU      7.40s WALL

 
   This run was terminated on:  12:17:40  14Nov2022            

=------------------------------------------------------------------------------=
   JOB DONE.
=------------------------------------------------------------------------------=
