
     Program PWSCF v.7.1 starts on 14Nov2022 at 12:20:22 

     This program is part of the open-source Quantum ESPRESSO suite
     for quantum simulation of materials; please cite
         "P. Giannozzi et al., J. Phys.:Condens. Matter 21 395502 (2009);
         "P. Giannozzi et al., J. Phys.:Condens. Matter 29 465901 (2017);
         "P. Giannozzi et al., J. Chem. Phys. 152 154105 (2020);
          URL http://www.quantum-espresso.org", 
     in publications or presentations arising from this work. More details at
     http://www.quantum-espresso.org/quote

     Parallel version (MPI & OpenMP), running on      36 processor cores
     Number of MPI processes:                36
     Threads/MPI process:                     1

     MPI processes distributed on     1 nodes
     177988 MiB available memory on the printing compute node when the environment starts
 
     Waiting for input...
     Reading input from standard input
Warning: card &CELL ignored
Warning: card / ignored

     Current dimensions of program PWSCF are:
     Max number of different atomic species (ntypx) = 10
     Max number of k-points (npk) =  40000
     Max angular momentum in pseudopotentials (lmaxx) =  4
     file Fe.pbesol-spn-kjpaw_psl.1.0.0.UPF: wavefunction(s)  3P 3D renormalized
     Found identity + ( -0.5000 -0.5000 -0.5000) symmetry
     This is a supercell, fractional translations are disabled
     Message from routine setup:
     using ibrav=0 with symmetry is DISCOURAGED, use correct ibrav instead
 
     K-points division:     npool     =       3
     R & G space division:  proc/nbgrp/npool/nimage =      12
     Subspace diagonalization in iterative solution of the eigenvalue problem:
     a serial algorithm will be used

 
     Parallelization info
     --------------------
     sticks:   dense  smooth     PW     G-vecs:    dense   smooth      PW
     Min          90      45     14                 2208      779     144
     Max          91      46     15                 2213      780     147
     Sum        1085     545    177                26529     9353    1743
 
     Using Slab Decomposition
 

     Title: 
     #                                                                          


     bravais-lattice index     =            0
     lattice parameter (alat)  =       5.3199  a.u.
     unit-cell volume          =     149.2156 (a.u.)^3
     number of atoms/cell      =            2
     number of atomic types    =            1
     number of electrons       =        32.00
     number of Kohn-Sham states=           20
     kinetic-energy cutoff     =      60.0000  Ry
     charge density cutoff     =     480.0000  Ry
     scf convergence threshold =      1.0E-06
     mixing beta               =       0.7000
     number of iterations used =            8  plain     mixing
     Exchange-correlation= SLA  PW   PSX  PSC
                           (   1   4  10   8   0   0   0)

     celldm(1)=   5.319880  celldm(2)=   0.000000  celldm(3)=   0.000000
     celldm(4)=   0.000000  celldm(5)=   0.000000  celldm(6)=   0.000000

     crystal axes: (cart. coord. in units of alat)
               a(1) = (   1.000000   0.000000   0.000000 )  
               a(2) = (   0.000000   1.000000   0.000000 )  
               a(3) = (   0.000000   0.000000   0.991080 )  

     reciprocal axes: (cart. coord. in units 2 pi/alat)
               b(1) = (  1.000000  0.000000  0.000000 )  
               b(2) = (  0.000000  1.000000  0.000000 )  
               b(3) = (  0.000000  0.000000  1.009000 )  


     PseudoPot. # 1 for Fe read from file:
     /home/nie0061/qe/pseudo/Fe.pbesol-spn-kjpaw_psl.1.0.0.UPF
     MD5 check sum: e30d5f36a6f0cb983ee41abee56170da
     Pseudo is Projector augmented-wave + core cor, Zval = 16.0
     Generated using &quot;atomic&quot; code by A. Dal Corso  v.6.3
     Shape of augmentation charge: PSQ
     Using radial grid of 1191 points,  6 beta functions with: 
                l(1) =   0
                l(2) =   0
                l(3) =   1
                l(4) =   1
                l(5) =   2
                l(6) =   2
     Q(r) pseudized with 0 coefficients 


     atomic species   valence    mass     pseudopotential
        Fe            16.00    55.84500     Fe( 1.00)

     Starting magnetic structure 
     atomic species   magnetization
        Fe           0.700

     16 Sym. Ops., with inversion, found



   Cartesian axes

     site n.     atom                  positions (alat units)
         1           Fe  tau(   1) = (   0.0000000   0.0000000   0.0000000  )
         2           Fe  tau(   2) = (   0.5000000   0.5000000   0.4955402  )

     number of k points=   126  Gaussian smearing, width (Ry)=  0.0200

     Number of k-points >= 100: set verbosity='high' to print them.

     Dense  grid:    26529 G-vectors     FFT dimensions: (  40,  40,  40)

     Smooth grid:     9353 G-vectors     FFT dimensions: (  27,  27,  25)

     Estimated max dynamical RAM per process >       8.76 MB

     Estimated total dynamical RAM >     289.48 MB

     Check: negative core charge=   -0.000003
     Generating pointlists ...
     new r_m :   0.3562 (alat units)  1.8948 (a.u.) for type    1

     Initial potential from superposition of free atoms

     starting charge      31.9992, renormalised to      32.0000
     Starting wfcs are   20 randomized atomic wfcs
     Checking if some PAW data can be deallocated... 

     total cpu time spent up to now is        0.4 secs

     Self-consistent Calculation

     iteration #  1     ecut=    60.00 Ry     beta= 0.70
     Davidson diagonalization with overlap
     ethr =  1.00E-02,  avg # of iterations =  3.4

     negative rho (up, down):  0.000E+00 5.778E-04

     total cpu time spent up to now is        1.2 secs

     total energy              =    -653.29502420 Ry
     estimated scf accuracy    <       3.08229529 Ry

     total magnetization       =     7.38 Bohr mag/cell
     absolute magnetization    =     7.49 Bohr mag/cell

     iteration #  2     ecut=    60.00 Ry     beta= 0.70
     Davidson diagonalization with overlap
     ethr =  9.63E-03,  avg # of iterations =  1.1

     negative rho (up, down):  0.000E+00 4.563E-04

     total cpu time spent up to now is        1.7 secs

     total energy              =    -653.68058167 Ry
     estimated scf accuracy    <       0.55104801 Ry

     total magnetization       =     6.01 Bohr mag/cell
     absolute magnetization    =     6.35 Bohr mag/cell

     iteration #  3     ecut=    60.00 Ry     beta= 0.70
     Davidson diagonalization with overlap
     ethr =  1.72E-03,  avg # of iterations =  2.8

     negative rho (up, down):  0.000E+00 5.271E-04

     total cpu time spent up to now is        2.4 secs

     total energy              =    -653.71750441 Ry
     estimated scf accuracy    <       0.55538493 Ry

     total magnetization       =     4.64 Bohr mag/cell
     absolute magnetization    =     4.92 Bohr mag/cell

     iteration #  4     ecut=    60.00 Ry     beta= 0.70
     Davidson diagonalization with overlap
     ethr =  1.72E-03,  avg # of iterations =  2.2

     negative rho (up, down):  0.000E+00 4.055E-04

     total cpu time spent up to now is        3.0 secs

     total energy              =    -653.80206113 Ry
     estimated scf accuracy    <       0.00993833 Ry

     total magnetization       =     4.52 Bohr mag/cell
     absolute magnetization    =     4.81 Bohr mag/cell

     iteration #  5     ecut=    60.00 Ry     beta= 0.70
     Davidson diagonalization with overlap
     ethr =  3.11E-05,  avg # of iterations =  4.4

     negative rho (up, down):  0.000E+00 2.762E-04

     total cpu time spent up to now is        3.8 secs

     total energy              =    -653.79273259 Ry
     estimated scf accuracy    <       0.43776896 Ry

     total magnetization       =     4.29 Bohr mag/cell
     absolute magnetization    =     4.53 Bohr mag/cell

     iteration #  6     ecut=    60.00 Ry     beta= 0.70
     Davidson diagonalization with overlap
     ethr =  3.11E-05,  avg # of iterations =  3.2

     negative rho (up, down):  0.000E+00 1.900E-04

     total cpu time spent up to now is        4.5 secs

     total energy              =    -653.81047397 Ry
     estimated scf accuracy    <       0.00648895 Ry

     total magnetization       =     4.30 Bohr mag/cell
     absolute magnetization    =     4.51 Bohr mag/cell

     iteration #  7     ecut=    60.00 Ry     beta= 0.70
     Davidson diagonalization with overlap
     ethr =  2.03E-05,  avg # of iterations =  2.4

     negative rho (up, down):  0.000E+00 1.650E-04

     total cpu time spent up to now is        5.2 secs

     total energy              =    -653.81225367 Ry
     estimated scf accuracy    <       0.00057384 Ry

     total magnetization       =     4.23 Bohr mag/cell
     absolute magnetization    =     4.42 Bohr mag/cell

     iteration #  8     ecut=    60.00 Ry     beta= 0.70
     Davidson diagonalization with overlap
     ethr =  1.79E-06,  avg # of iterations =  2.1

     negative rho (up, down):  0.000E+00 1.607E-04

     total cpu time spent up to now is        5.7 secs

     total energy              =    -653.81238051 Ry
     estimated scf accuracy    <       0.00003150 Ry

     total magnetization       =     4.23 Bohr mag/cell
     absolute magnetization    =     4.42 Bohr mag/cell

     iteration #  9     ecut=    60.00 Ry     beta= 0.70
     Davidson diagonalization with overlap
     ethr =  9.85E-08,  avg # of iterations =  1.8

     negative rho (up, down):  0.000E+00 1.651E-04

     total cpu time spent up to now is        6.3 secs

     total energy              =    -653.81238447 Ry
     estimated scf accuracy    <       0.00000918 Ry

     total magnetization       =     4.22 Bohr mag/cell
     absolute magnetization    =     4.41 Bohr mag/cell

     iteration # 10     ecut=    60.00 Ry     beta= 0.70
     Davidson diagonalization with overlap
     ethr =  2.87E-08,  avg # of iterations =  2.8

     negative rho (up, down):  0.000E+00 1.646E-04

     total cpu time spent up to now is        7.0 secs

     total energy              =    -653.81238752 Ry
     estimated scf accuracy    <       0.00000269 Ry

     total magnetization       =     4.22 Bohr mag/cell
     absolute magnetization    =     4.41 Bohr mag/cell

     iteration # 11     ecut=    60.00 Ry     beta= 0.70
     Davidson diagonalization with overlap
     ethr =  8.42E-09,  avg # of iterations =  1.4

     negative rho (up, down):  0.000E+00 1.637E-04
 
     Magnetic moment per site  (integrated on atomic sphere of radius R)
     atom   1 (R=0.356)  charge= 14.3664  magn=  2.1464
     atom   2 (R=0.356)  charge= 14.3663  magn=  2.1454

     total cpu time spent up to now is        7.5 secs

     End of self-consistent calculation

     Number of k-points >= 100: set verbosity='high' to print the bands.

     the Fermi energy is    18.8038 ev

!    total energy              =    -653.81238709 Ry
     total all-electron energy =     -5086.463806 Ry
     estimated scf accuracy    <       0.00000066 Ry
     smearing contrib. (-TS)   =      -0.00477858 Ry
     internal energy E=F+TS    =    -653.80760852 Ry

     The total energy is F=E-TS. E is the sum of the following terms:
     one-electron contribution =    -213.97200159 Ry
     hartree contribution      =     127.78966700 Ry
     xc contribution           =     -54.88873643 Ry
     ewald contribution        =    -351.29700220 Ry
     one-center paw contrib.   =    -161.43953529 Ry

     total magnetization       =     4.22 Bohr mag/cell
     absolute magnetization    =     4.41 Bohr mag/cell

     convergence has been achieved in  11 iterations

     Writing all to output data dir ./pwscf.save/
 
     init_run     :      0.30s CPU      0.34s WALL (       1 calls)
     electrons    :      6.79s CPU      7.10s WALL (       1 calls)

     Called by init_run:
     wfcinit      :      0.12s CPU      0.13s WALL (       1 calls)
     potinit      :      0.09s CPU      0.12s WALL (       1 calls)
     hinit0       :      0.06s CPU      0.06s WALL (       1 calls)

     Called by electrons:
     c_bands      :      5.06s CPU      5.31s WALL (      11 calls)
     sum_band     :      0.72s CPU      0.77s WALL (      11 calls)
     v_of_rho     :      0.07s CPU      0.07s WALL (      12 calls)
     newd         :      0.03s CPU      0.03s WALL (      12 calls)
     PAW_pot      :      0.97s CPU      1.00s WALL (      12 calls)
     mix_rho      :      0.01s CPU      0.01s WALL (      11 calls)

     Called by c_bands:
     init_us_2    :      0.06s CPU      0.06s WALL (    1932 calls)
     init_us_2:cp :      0.05s CPU      0.06s WALL (    1932 calls)
     cegterg      :      4.25s CPU      4.47s WALL (     924 calls)

     Called by *egterg:
     cdiaghg      :      1.25s CPU      1.30s WALL (    3208 calls)
     h_psi        :      2.71s CPU      2.87s WALL (    3292 calls)
     s_psi        :      0.04s CPU      0.05s WALL (    3292 calls)
     g_psi        :      0.01s CPU      0.01s WALL (    2284 calls)

     Called by h_psi:
     h_psi:calbec :      0.10s CPU      0.10s WALL (    3292 calls)
     vloc_psi     :      2.54s CPU      2.69s WALL (    3292 calls)
     add_vuspsi   :      0.05s CPU      0.05s WALL (    3292 calls)

     General routines
     calbec       :      0.12s CPU      0.13s WALL (    4216 calls)
     fft          :      0.02s CPU      0.03s WALL (     294 calls)
     ffts         :      0.00s CPU      0.00s WALL (      46 calls)
     fftw         :      2.71s CPU      2.87s WALL (  112968 calls)
     interpolate  :      0.00s CPU      0.00s WALL (      24 calls)
 
     Parallel routines
 
     PWSCF        :      7.26s CPU      7.90s WALL

 
   This run was terminated on:  12:20:30  14Nov2022            

=------------------------------------------------------------------------------=
   JOB DONE.
=------------------------------------------------------------------------------=
