       N       E                     dE             d eps       ncg     rms          rms(c)
DAV:   1     0.639312796437E+02    0.63931E+02   -0.22113E+04   127968   0.204E+03
DAV:   2    -0.136712151597E+02   -0.77602E+02   -0.76839E+02   133488   0.195E+02
DAV:   3    -0.141285953119E+02   -0.45738E+00   -0.45736E+00   144048   0.219E+01
DAV:   4    -0.141307093828E+02   -0.21141E-02   -0.21141E-02   173712   0.125E+00
DAV:   5    -0.141307213373E+02   -0.11955E-04   -0.11953E-04   145416   0.667E-02    0.312E+01
DAV:   6    -0.163627897674E+02   -0.22321E+01   -0.20881E+01   130320   0.383E+01    0.650E+00
DAV:   7    -0.165218404276E+02   -0.15905E+00   -0.11780E+00   129624   0.832E+00    0.401E+00
DAV:   8    -0.165474254852E+02   -0.25585E-01   -0.31809E-02   139824   0.152E+00    0.131E+00
DAV:   9    -0.165401086163E+02    0.73169E-02   -0.18994E-02   136992   0.840E-01    0.372E-01
DAV:  10    -0.165398069877E+02    0.30163E-03   -0.29023E-03   130152   0.547E-01    0.507E-02
DAV:  11    -0.165398551959E+02   -0.48208E-04   -0.95108E-05   132984   0.694E-02    0.265E-02
DAV:  12    -0.165398543995E+02    0.79637E-06   -0.86101E-06   145920   0.231E-02    0.102E-02
DAV:  13    -0.165398544002E+02   -0.65393E-09   -0.12459E-06   136440   0.963E-03    0.429E-03
DAV:  14    -0.165398545341E+02   -0.13394E-06   -0.85084E-07   140712   0.427E-03    0.707E-04
DAV:  15    -0.165398545700E+02   -0.35898E-07   -0.98591E-09    66816   0.103E-03
   1 F= -.16539855E+02 E0= -.16539843E+02  d E =-.343872E-04  mag=     4.3767
