       N       E                     dE             d eps       ncg     rms          rms(c)
DAV:   1     0.634053446117E+02    0.63405E+02   -0.22108E+04   148368   0.204E+03
DAV:   2    -0.135720557865E+02   -0.76977E+02   -0.76232E+02   154248   0.195E+02
DAV:   3    -0.140212799748E+02   -0.44922E+00   -0.44920E+00   165048   0.217E+01
DAV:   4    -0.140233206958E+02   -0.20407E-02   -0.20407E-02   199560   0.123E+00
DAV:   5    -0.140233316906E+02   -0.10995E-04   -0.10994E-04   166944   0.641E-02    0.317E+01
DAV:   6    -0.163511114128E+02   -0.23278E+01   -0.20312E+01   150744   0.380E+01    0.635E+00
DAV:   7    -0.165188504061E+02   -0.16774E+00   -0.10349E+00   150000   0.788E+00    0.395E+00
DAV:   8    -0.165475606433E+02   -0.28710E-01   -0.27985E-02   161448   0.150E+00    0.132E+00
DAV:   9    -0.165398310130E+02    0.77296E-02   -0.17724E-02   160416   0.823E-01    0.353E-01
DAV:  10    -0.165397063210E+02    0.12469E-03   -0.28238E-03   151416   0.524E-01    0.488E-02
DAV:  11    -0.165397533595E+02   -0.47039E-04   -0.84989E-05   153624   0.698E-02    0.264E-02
DAV:  12    -0.165397526257E+02    0.73387E-06   -0.79080E-06   168072   0.223E-02    0.942E-03
DAV:  13    -0.165397525885E+02    0.37161E-07   -0.11705E-06   157992   0.878E-03    0.431E-03
DAV:  14    -0.165397527283E+02   -0.13976E-06   -0.69843E-07   159528   0.391E-03    0.754E-04
DAV:  15    -0.165397527871E+02   -0.58890E-07   -0.80040E-09    77088   0.100E-03
   1 F= -.16539753E+02 E0= -.16539722E+02  d E =-.916596E-04  mag=     4.3196
