       N       E                     dE             d eps       ncg     rms          rms(c)
DAV:   1    -0.165269875908E+02   -0.16527E+02   -0.23437E-01898320   0.196E+01
DAV:   2    -0.165270139883E+02   -0.26398E-04   -0.26403E-04******   0.124E-01
DAV:   3    -0.165270140595E+02   -0.71172E-07   -0.72655E-07954888   0.706E-03
DAV:   4    -0.165270140605E+02   -0.10168E-08   -0.96279E-09******   0.710E-04
DAV:   5    -0.165270140603E+02    0.17462E-09   -0.17797E-10761544   0.947E-05
   1 F= -.16527014E+02 E0= -.16527014E+02  d E =0.000000E+00  mag=     0.0000     0.0000     4.3285
