       N       E                     dE             d eps       ncg     rms          rms(c)
DAV:   1    -0.165267093552E+02   -0.16527E+02   -0.23435E-01897936   0.196E+01
DAV:   2    -0.165267353418E+02   -0.25987E-04   -0.25990E-04******   0.124E-01
DAV:   3    -0.165267354130E+02   -0.71224E-07   -0.72129E-07954408   0.699E-03
DAV:   4    -0.165267354150E+02   -0.19772E-08   -0.94957E-09******   0.701E-04
DAV:   5    -0.165267354133E+02    0.16753E-08   -0.17528E-10767304   0.928E-05
DAV:   6    -0.165267354140E+02   -0.74397E-09   -0.13605E-11640848   0.293E-05
   1 F= -.16526735E+02 E0= -.16526735E+02  d E =0.000000E+00  mag=     0.0000     0.0000     4.3287
